
     Program Q2R v.5.1.2 starts on  5Nov2015 at 13:15:45 

     This program is part of the open-source Quantum ESPRESSO suite
     for quantum simulation of materials; please cite
         "P. Giannozzi et al., J. Phys.:Condens. Matter 21 395502 (2009);
          URL http://www.quantum-espresso.org", 
     in publications or presentations arising from this work. More details at
     http://www.quantum-espresso.org/quote

     Parallel version (MPI), running on     1 processors

     reading grid info from file si.dyn0
  reading force constants from file si.dyn1
 macroscopic fields = T
  12.99096   0.00000   0.00000
   0.00000  12.99096   0.00000
   0.00000   0.00000  12.99096
  na=            1
   0.01407   0.00000   0.00000
   0.00000   0.01407   0.00000
   0.00000   0.00000   0.01407
  na=            2
   0.01407   0.00000   0.00000
   0.00000   0.01407   0.00000
   0.00000   0.00000   0.01407
  nqs=            1
 q=   0.00000000  0.00000000  0.00000000
  reading force constants from file si.dyn2
  nqs=            8
 q=  -0.33333333  0.33333333 -0.33333333
 q=   0.33333333  0.33333333 -0.33333333
 q=   0.33333333  0.33333333  0.33333333
 q=  -0.33333333  0.33333333  0.33333333
 q=   0.33333333 -0.33333333  0.33333333
 q=  -0.33333333 -0.33333333 -0.33333333
 q=   0.33333333 -0.33333333 -0.33333333
 q=  -0.33333333 -0.33333333  0.33333333
  reading force constants from file si.dyn3
  nqs=            6
 q=   0.00000000  0.66666667  0.00000000
 q=  -0.66666667  0.00000000  0.00000000
 q=   0.00000000 -0.66666667  0.00000000
 q=   0.00000000  0.00000000  0.66666667
 q=   0.00000000  0.00000000 -0.66666667
 q=   0.66666667  0.00000000  0.00000000
  reading force constants from file si.dyn4
  nqs=           12
 q=   0.66666667  0.00000000  0.66666667
 q=   0.66666667  0.00000000 -0.66666667
 q=  -0.66666667  0.00000000 -0.66666667
 q=  -0.66666667  0.00000000  0.66666667
 q=   0.00000000 -0.66666667  0.66666667
 q=  -0.66666667  0.66666667  0.00000000
 q=  -0.66666667 -0.66666667  0.00000000
 q=   0.66666667  0.66666667  0.00000000
 q=   0.66666667 -0.66666667  0.00000000
 q=   0.00000000  0.66666667  0.66666667
 q=   0.00000000  0.66666667 -0.66666667
 q=   0.00000000 -0.66666667 -0.66666667

      q-space grid ok, #points =   27

      fft-check success (sum of imaginary terms < 10^-12)
 
     Q2R          :     0.01s CPU         0.10s WALL

 
   This run was terminated on:  13:15:45   5Nov2015            

=------------------------------------------------------------------------------=
   JOB DONE.
=------------------------------------------------------------------------------=
