
     Program PHONON v.5.1.2 starts on 19Nov2015 at 14:37:51 

     This program is part of the open-source Quantum ESPRESSO suite
     for quantum simulation of materials; please cite
         "P. Giannozzi et al., J. Phys.:Condens. Matter 21 395502 (2009);
          URL http://www.quantum-espresso.org", 
     in publications or presentations arising from this work. More details at
     http://www.quantum-espresso.org/quote

     Parallel version (MPI), running on     4 processors
     R & G space division:  proc/nbgrp/npool/nimage =       4

     Reading data from directory:
     /home/users/zhennighausen/Computational_Klasse/Si-Grosser/pwscf.save

   Info: using nr1, nr2, nr3 values from input

   Info: using nr1s, nr2s, nr3s values from input

     IMPORTANT: XC functional enforced from input :
     Exchange-correlation      =  SLA  PW   PBX  PBC ( 1  4  3  4 0 0)
     Any further DFT definition will be discarded
     Please, verify this is what you really want

               file Si.pbe-n-kjpaw_psl.0.1.UPF: wavefunction(s)  3S renormalized
 
     Parallelization info
     --------------------
     sticks:   dense  smooth     PW     G-vecs:    dense   smooth      PW
     Min         108     108     37                 1489     1489     309
     Max         109     109     38                 1492     1492     312
     Sum         433     433    151                 5961     5961    1243
 

     Check: negative/imaginary core charge=   -0.000004    0.000000


     Dynamical matrices for ( 6, 6, 6)  uniform grid of q-points
     (  16q-points):
       N         xq(1)         xq(2)         xq(3) 
       1   0.000000000   0.000000000   0.000000000
       2  -0.166666667   0.166666667  -0.166666667
       3  -0.333333333   0.333333333  -0.333333333
       4   0.500000000  -0.500000000   0.500000000
       5   0.000000000   0.333333333   0.000000000
       6  -0.166666667   0.500000000  -0.166666667
       7   0.666666667  -0.333333333   0.666666667
       8   0.500000000  -0.166666667   0.500000000
       9   0.333333333   0.000000000   0.333333333
      10   0.000000000   0.666666667   0.000000000
      11   0.833333333  -0.166666667   0.833333333
      12   0.666666667  -0.000000000   0.666666667
      13   0.000000000  -1.000000000   0.000000000
      14   0.666666667  -0.333333333   1.000000000
      15   0.500000000  -0.166666667   0.833333333
      16  -0.333333333  -1.000000000   0.000000000

     Calculation of q =    0.0000000   0.0000000   0.0000000

                                                                                

     bravais-lattice index     =            2
     lattice parameter (alat)  =      10.2600  a.u.
     unit-cell volume          =     270.0114 (a.u.)^3
     number of atoms/cell      =            2
     number of atomic types    =            1
     kinetic-energy cut-off    =      30.0000  Ry
     charge density cut-off    =     120.0000  Ry
     convergence threshold     =      1.0E-12
     beta                      =       0.7000
     number of iterations used =            4
     Exchange-correlation      =  SLA  PW   PBX  PBC ( 1  4  3  4 0 0)


     celldm(1)=   10.26000  celldm(2)=    0.00000  celldm(3)=    0.00000
     celldm(4)=    0.00000  celldm(5)=    0.00000  celldm(6)=    0.00000

     crystal axes: (cart. coord. in units of alat)
               a(1) = ( -0.5000  0.0000  0.5000 )  
               a(2) = (  0.0000  0.5000  0.5000 )  
               a(3) = ( -0.5000  0.5000  0.0000 )  

     reciprocal axes: (cart. coord. in units 2 pi/alat)
               b(1) = ( -1.0000 -1.0000  1.0000 )  
               b(2) = (  1.0000  1.0000  1.0000 )  
               b(3) = ( -1.0000  1.0000 -1.0000 )  


     Atoms inside the unit cell: 

     Cartesian axes

     site n.  atom      mass           positions (alat units)
        1     Si1 28.0855   tau(    1) = (    0.00000    0.00000    0.00000  )
        2     Si1 28.0855   tau(    2) = (    0.25000    0.25000    0.25000  )

     Computing dynamical matrix for 
                    q = (   0.0000000   0.0000000   0.0000000 )
 
     25 Sym.Ops. (with q -> -q+G )


     G cutoff =  319.9751  (   1491 G-vectors)     FFT grid: ( 25, 25, 25)
     number of k points=    60

     PseudoPot. # 1 for Si read from file:
     /home/users/zhennighausen/pslibrary.1.0.0/folder/Si.pbe-n-kjpaw_psl.0.1.UPF
     MD5 check sum: b9d333a40e496bef61db012f150758bf
     Pseudo is Projector augmented-wave + core cor, Zval =  4.0
     Generated using "atomic" code by A. Dal Corso  v.5.0.2 svn rev. 9415
     Shape of augmentation charge: PSQ
     Using radial grid of 1141 points,  4 beta functions with: 
                l(1) =   0
                l(2) =   0
                l(3) =   1
                l(4) =   1
     Q(r) pseudized with 0 coefficients 


     Mode symmetry, T_d (-43m)  point group:


     Electric field:
     Dielectric constant
     Born effective charges in two ways 


     Atomic displacements:
     There are   2 irreducible representations

     Representation     1      3 modes -T_2  G_15 P_4  To be done

     Representation     2      3 modes -T_2  G_15 P_4  To be done



     Alpha used in Ewald sum =   1.3000
     PHONON       :     2.38s CPU         5.69s WALL


     Electric Fields Calculation

      iter #   1 total cpu time :    20.5 secs   av.it.:   6.0
      thresh= 1.000E-02 alpha_mix =  0.700 |ddv_scf|^2 =  3.574E-07

      iter #   2 total cpu time :    27.6 secs   av.it.:  11.2
      thresh= 5.979E-05 alpha_mix =  0.700 |ddv_scf|^2 =  2.201E-08

      iter #   3 total cpu time :    34.6 secs   av.it.:  11.0
      thresh= 1.484E-05 alpha_mix =  0.700 |ddv_scf|^2 =  1.175E-09

      iter #   4 total cpu time :    41.6 secs   av.it.:  10.7
      thresh= 3.427E-06 alpha_mix =  0.700 |ddv_scf|^2 =  9.385E-12

      iter #   5 total cpu time :    49.8 secs   av.it.:  11.0
      thresh= 3.064E-07 alpha_mix =  0.700 |ddv_scf|^2 =  1.364E-14

     End of electric fields calculation

          Dielectric constant in cartesian axis 

          (      12.934161062      -0.000000000      -0.000000000 )
          (      -0.000000000      12.934161062      -0.000000000 )
          (      -0.000000000      -0.000000000      12.934161062 )

          Effective charges (d Force / dE) in cartesian axis

           atom      1   Si1
      Ex  (        0.01684        0.00000        0.00000 )
      Ey  (        0.00000        0.01684       -0.00000 )
      Ez  (        0.00000       -0.00000        0.01684 )
           atom      2   Si1
      Ex  (        0.01742       -0.00000        0.00000 )
      Ey  (        0.00000        0.01742       -0.00000 )
      Ez  (       -0.00000       -0.00000        0.01742 )


     Representation #  1 modes #   1  2  3

     Self-consistent Calculation

      iter #   1 total cpu time :    61.7 secs   av.it.:   5.1
      thresh= 1.000E-02 alpha_mix =  0.700 |ddv_scf|^2 =  7.748E-08

      iter #   2 total cpu time :    68.7 secs   av.it.:  11.1
      thresh= 2.783E-05 alpha_mix =  0.700 |ddv_scf|^2 =  5.276E-09

      iter #   3 total cpu time :    75.8 secs   av.it.:  11.0
      thresh= 7.264E-06 alpha_mix =  0.700 |ddv_scf|^2 =  2.251E-10

      iter #   4 total cpu time :    83.5 secs   av.it.:  11.1
      thresh= 1.500E-06 alpha_mix =  0.700 |ddv_scf|^2 =  1.260E-12

      iter #   5 total cpu time :    90.4 secs   av.it.:  11.2
      thresh= 1.123E-07 alpha_mix =  0.700 |ddv_scf|^2 =  5.487E-14

     End of self-consistent calculation

     Convergence has been achieved 


     Representation #  2 modes #   4  5  6

     Self-consistent Calculation

      iter #   1 total cpu time :    96.4 secs   av.it.:   5.1
      thresh= 1.000E-02 alpha_mix =  0.700 |ddv_scf|^2 =  7.785E-08

      iter #   2 total cpu time :   103.4 secs   av.it.:  11.0
      thresh= 2.790E-05 alpha_mix =  0.700 |ddv_scf|^2 =  5.314E-09

      iter #   3 total cpu time :   110.5 secs   av.it.:  10.9
      thresh= 7.290E-06 alpha_mix =  0.700 |ddv_scf|^2 =  2.250E-10

      iter #   4 total cpu time :   118.1 secs   av.it.:  11.0
      thresh= 1.500E-06 alpha_mix =  0.700 |ddv_scf|^2 =  1.248E-12

      iter #   5 total cpu time :   125.2 secs   av.it.:  11.1
      thresh= 1.117E-07 alpha_mix =  0.700 |ddv_scf|^2 =  5.410E-14

     End of self-consistent calculation

     Convergence has been achieved 
 
     Number of q in the star =    1
     List of q in the star:
          1   0.000000000   0.000000000   0.000000000

          Dielectric constant in cartesian axis 

          (      12.934161062      -0.000000000      -0.000000000 )
          (      -0.000000000      12.934161062      -0.000000000 )
          (      -0.000000000      -0.000000000      12.934161062 )

          Effective charges (d Force / dE) in cartesian axis

           atom      1   Si1
      Ex  (        0.01684        0.00000        0.00000 )
      Ey  (        0.00000        0.01684       -0.00000 )
      Ez  (        0.00000       -0.00000        0.01684 )
           atom      2   Si1
      Ex  (        0.01742       -0.00000        0.00000 )
      Ey  (        0.00000        0.01742       -0.00000 )
      Ez  (       -0.00000       -0.00000        0.01742 )

          Effective charges (d P / du) in cartesian axis 

           atom      1   Si1
      Px  (       -0.00704        0.00000       -0.00000 )
      Py  (        0.00000       -0.00704       -0.00000 )
      Pz  (        0.00000       -0.00000       -0.00704 )
           atom      2   Si1
      Px  (       -0.00219        0.00000        0.00000 )
      Py  (        0.00000       -0.00219        0.00000 )
      Pz  (        0.00000        0.00000       -0.00219 )

     Diagonalizing the dynamical matrix

     q = (    0.000000000   0.000000000   0.000000000 ) 

 **************************************************************************
     freq (    1) =      -1.562947 [THz] =     -52.134289 [cm-1]
     freq (    2) =      -1.562947 [THz] =     -52.134289 [cm-1]
     freq (    3) =      -1.562947 [THz] =     -52.134289 [cm-1]
     freq (    4) =      15.303997 [THz] =     510.486399 [cm-1]
     freq (    5) =      15.303997 [THz] =     510.486399 [cm-1]
     freq (    6) =      15.303997 [THz] =     510.486399 [cm-1]
 **************************************************************************

     Mode symmetry, T_d (-43m)  point group:

     freq (  1 -  3) =        -52.1  [cm-1]   --> T_2  G_15 P_4   I+R
     freq (  4 -  6) =        510.5  [cm-1]   --> T_2  G_15 P_4   I+R

     Calculation of q =   -0.1666667   0.1666667  -0.1666667
 
     Parallelization info
     --------------------
     sticks:   dense  smooth     PW     G-vecs:    dense   smooth      PW
     Min         108     108     37                 1489     1489     309
     Max         109     109     38                 1492     1492     312
     Sum         433     433    151                 5961     5961    1243
 


     bravais-lattice index     =            2
     lattice parameter (alat)  =      10.2600  a.u.
     unit-cell volume          =     270.0114 (a.u.)^3
     number of atoms/cell      =            2
     number of atomic types    =            1
     number of electrons       =         8.00
     number of Kohn-Sham states=            4
     kinetic-energy cutoff     =      30.0000  Ry
     charge density cutoff     =     120.0000  Ry
     Exchange-correlation      =  SLA  PW   PBX  PBC ( 1  4  3  4 0 0)

     celldm(1)=  10.260000  celldm(2)=   0.000000  celldm(3)=   0.000000
     celldm(4)=   0.000000  celldm(5)=   0.000000  celldm(6)=   0.000000

     crystal axes: (cart. coord. in units of alat)
               a(1) = (  -0.500000   0.000000   0.500000 )  
               a(2) = (   0.000000   0.500000   0.500000 )  
               a(3) = (  -0.500000   0.500000   0.000000 )  

     reciprocal axes: (cart. coord. in units 2 pi/alat)
               b(1) = ( -1.000000 -1.000000  1.000000 )  
               b(2) = (  1.000000  1.000000  1.000000 )  
               b(3) = ( -1.000000  1.000000 -1.000000 )  


     PseudoPot. # 1 for Si read from file:
     /home/users/zhennighausen/pslibrary.1.0.0/folder/Si.pbe-n-kjpaw_psl.0.1.UPF
     MD5 check sum: b9d333a40e496bef61db012f150758bf
     Pseudo is Projector augmented-wave + core cor, Zval =  4.0
     Generated using "atomic" code by A. Dal Corso  v.5.0.2 svn rev. 9415
     Shape of augmentation charge: PSQ
     Using radial grid of 1141 points,  4 beta functions with: 
                l(1) =   0
                l(2) =   0
                l(3) =   1
                l(4) =   1
     Q(r) pseudized with 0 coefficients 


     atomic species   valence    mass     pseudopotential
        Si1            4.00    28.08550     Si( 1.00)

     24 Sym. Ops. (no inversion) found



   Cartesian axes

     site n.     atom                  positions (alat units)
         1           Si1 tau(   1) = (   0.0000000   0.0000000   0.0000000  )
         2           Si1 tau(   2) = (   0.2500000   0.2500000   0.2500000  )

     number of k points=   816

     Number of k-points >= 100: set verbosity='high' to print them.

     Dense  grid:     5961 G-vectors     FFT dimensions: (  25,  25,  25)

     Largest allocated arrays     est. size (Mb)     dimensions
        Kohn-Sham Wavefunctions         0.01 Mb     (     203,    4)
        NL pseudopotentials             0.05 Mb     (     203,   16)
        Each V/rho on FFT grid          0.07 Mb     (    4375)
        Each G-vector array             0.01 Mb     (    1491)
        G-vector shells                 0.00 Mb     (     108)
     Largest temporary arrays     est. size (Mb)     dimensions
        Auxiliary wavefunctions         0.05 Mb     (     203,   16)
        Each subspace H/S matrix        0.00 Mb     (      16,   16)
        Each <psi_i|beta_j> matrix      0.00 Mb     (      16,    4)

     Check: negative/imaginary core charge=   -0.000004    0.000000

     The potential is recalculated from file :
     /home/users/zhennighausen/Computational_Klasse/Si-Grosser/_ph0/pwscf.save/charge-density.dat

     Starting wfc are    8 atomic wfcs
     Checking if some PAW data can be deallocated... 

     Band Structure Calculation
     Davidson diagonalization with overlap

     ethr =  1.25E-10,  avg # of iterations = 12.5

     total cpu time spent up to now is       27.1 secs

     End of band structure calculation

     Number of k-points >= 100: set verbosity='high' to print the bands.

     highest occupied level (ev):     6.2074

     Writing output data file pwscf.save

                                                                                

     bravais-lattice index     =            2
     lattice parameter (alat)  =      10.2600  a.u.
     unit-cell volume          =     270.0114 (a.u.)^3
     number of atoms/cell      =            2
     number of atomic types    =            1
     kinetic-energy cut-off    =      30.0000  Ry
     charge density cut-off    =     120.0000  Ry
     convergence threshold     =      1.0E-12
     beta                      =       0.7000
     number of iterations used =            4
     Exchange-correlation      =  SLA  PW   PBX  PBC ( 1  4  3  4 0 0)


     celldm(1)=   10.26000  celldm(2)=    0.00000  celldm(3)=    0.00000
     celldm(4)=    0.00000  celldm(5)=    0.00000  celldm(6)=    0.00000

     crystal axes: (cart. coord. in units of alat)
               a(1) = ( -0.5000  0.0000  0.5000 )  
               a(2) = (  0.0000  0.5000  0.5000 )  
               a(3) = ( -0.5000  0.5000  0.0000 )  

     reciprocal axes: (cart. coord. in units 2 pi/alat)
               b(1) = ( -1.0000 -1.0000  1.0000 )  
               b(2) = (  1.0000  1.0000  1.0000 )  
               b(3) = ( -1.0000  1.0000 -1.0000 )  


     Atoms inside the unit cell: 

     Cartesian axes

     site n.  atom      mass           positions (alat units)
        1     Si1 28.0855   tau(    1) = (    0.00000    0.00000    0.00000  )
        2     Si1 28.0855   tau(    2) = (    0.25000    0.25000    0.25000  )

     Computing dynamical matrix for 
                    q = (  -0.1666667   0.1666667  -0.1666667 )
 
      6 Sym.Ops. (no q -> -q+G )


     G cutoff =  319.9751  (   1491 G-vectors)     FFT grid: ( 25, 25, 25)
     number of k points=   816

     PseudoPot. # 1 for Si read from file:
     /home/users/zhennighausen/pslibrary.1.0.0/folder/Si.pbe-n-kjpaw_psl.0.1.UPF
     MD5 check sum: b9d333a40e496bef61db012f150758bf
     Pseudo is Projector augmented-wave + core cor, Zval =  4.0
     Generated using "atomic" code by A. Dal Corso  v.5.0.2 svn rev. 9415
     Shape of augmentation charge: PSQ
     Using radial grid of 1141 points,  4 beta functions with: 
                l(1) =   0
                l(2) =   0
                l(3) =   1
                l(4) =   1
     Q(r) pseudized with 0 coefficients 


     Mode symmetry, C_3v (3m)   point group:


     Atomic displacements:
     There are   4 irreducible representations

     Representation     1      1 modes -A_1  L_1  To be done

     Representation     2      1 modes -A_1  L_1  To be done

     Representation     3      2 modes -E    L_3  To be done

     Representation     4      2 modes -E    L_3  To be done



     Alpha used in Ewald sum =   1.3000
     PHONON       :  2m 7.20s CPU     2m46.74s WALL



     Representation #  1 mode #   1

     Self-consistent Calculation

      iter #   1 total cpu time :   178.6 secs   av.it.:   6.1
      thresh= 1.000E-02 alpha_mix =  0.700 |ddv_scf|^2 =  4.686E-03

      iter #   2 total cpu time :   189.3 secs   av.it.:   8.2
      thresh= 6.845E-03 alpha_mix =  0.700 |ddv_scf|^2 =  1.465E-01

      iter #   3 total cpu time :   199.2 secs   av.it.:   7.5
      thresh= 1.000E-02 alpha_mix =  0.700 |ddv_scf|^2 =  1.088E-06

      iter #   4 total cpu time :   210.3 secs   av.it.:   8.8
      thresh= 1.043E-04 alpha_mix =  0.700 |ddv_scf|^2 =  2.373E-08

      iter #   5 total cpu time :   223.9 secs   av.it.:   9.7
      thresh= 1.541E-05 alpha_mix =  0.700 |ddv_scf|^2 =  6.176E-09

      iter #   6 total cpu time :   234.9 secs   av.it.:   8.8
      thresh= 7.859E-06 alpha_mix =  0.700 |ddv_scf|^2 =  3.546E-09

      iter #   7 total cpu time :   244.5 secs   av.it.:   7.2
      thresh= 5.954E-06 alpha_mix =  0.700 |ddv_scf|^2 =  6.181E-10

      iter #   8 total cpu time :   255.8 secs   av.it.:   7.6
      thresh= 2.486E-06 alpha_mix =  0.700 |ddv_scf|^2 =  1.134E-11

      iter #   9 total cpu time :   265.7 secs   av.it.:   7.5
      thresh= 3.367E-07 alpha_mix =  0.700 |ddv_scf|^2 =  1.244E-12

      iter #  10 total cpu time :   276.2 secs   av.it.:   8.0
      thresh= 1.115E-07 alpha_mix =  0.700 |ddv_scf|^2 =  1.469E-13

     End of self-consistent calculation

     Convergence has been achieved 


     Representation #  2 mode #   2

     Self-consistent Calculation

      iter #   1 total cpu time :   286.7 secs   av.it.:   6.1
      thresh= 1.000E-02 alpha_mix =  0.700 |ddv_scf|^2 =  4.686E-03

      iter #   2 total cpu time :   298.4 secs   av.it.:   8.2
      thresh= 6.845E-03 alpha_mix =  0.700 |ddv_scf|^2 =  1.465E-01

      iter #   3 total cpu time :   311.9 secs   av.it.:   7.5
      thresh= 1.000E-02 alpha_mix =  0.700 |ddv_scf|^2 =  1.082E-06

      iter #   4 total cpu time :   323.2 secs   av.it.:   8.8
      thresh= 1.040E-04 alpha_mix =  0.700 |ddv_scf|^2 =  2.402E-08

      iter #   5 total cpu time :   334.9 secs   av.it.:   9.7
      thresh= 1.550E-05 alpha_mix =  0.700 |ddv_scf|^2 =  6.123E-09

      iter #   6 total cpu time :   347.8 secs   av.it.:   8.8
      thresh= 7.825E-06 alpha_mix =  0.700 |ddv_scf|^2 =  4.260E-09

      iter #   7 total cpu time :   357.3 secs   av.it.:   7.1
      thresh= 6.527E-06 alpha_mix =  0.700 |ddv_scf|^2 =  5.990E-10

      iter #   8 total cpu time :   367.3 secs   av.it.:   7.7
      thresh= 2.447E-06 alpha_mix =  0.700 |ddv_scf|^2 =  1.131E-11

      iter #   9 total cpu time :   379.0 secs   av.it.:   7.5
      thresh= 3.363E-07 alpha_mix =  0.700 |ddv_scf|^2 =  1.267E-12

      iter #  10 total cpu time :   389.1 secs   av.it.:   8.0
      thresh= 1.126E-07 alpha_mix =  0.700 |ddv_scf|^2 =  1.469E-13

     End of self-consistent calculation

     Convergence has been achieved 


     Representation #  3 modes #   3  4

     Self-consistent Calculation

      iter #   1 total cpu time :   412.9 secs   av.it.:   5.1
      thresh= 1.000E-02 alpha_mix =  0.700 |ddv_scf|^2 =  1.963E-07

      iter #   2 total cpu time :   441.3 secs   av.it.:  10.7
      thresh= 4.430E-05 alpha_mix =  0.700 |ddv_scf|^2 =  1.400E-08

      iter #   3 total cpu time :   467.7 secs   av.it.:  10.6
      thresh= 1.183E-05 alpha_mix =  0.700 |ddv_scf|^2 =  9.400E-10

      iter #   4 total cpu time :   495.2 secs   av.it.:  10.6
      thresh= 3.066E-06 alpha_mix =  0.700 |ddv_scf|^2 =  3.470E-12

      iter #   5 total cpu time :   521.3 secs   av.it.:  10.8
      thresh= 1.863E-07 alpha_mix =  0.700 |ddv_scf|^2 =  1.639E-13

     End of self-consistent calculation

     Convergence has been achieved 


     Representation #  4 modes #   5  6

     Self-consistent Calculation

      iter #   1 total cpu time :   545.1 secs   av.it.:   5.2
      thresh= 1.000E-02 alpha_mix =  0.700 |ddv_scf|^2 =  1.972E-07

      iter #   2 total cpu time :   576.2 secs   av.it.:  11.0
      thresh= 4.441E-05 alpha_mix =  0.700 |ddv_scf|^2 =  1.411E-08

      iter #   3 total cpu time :   602.4 secs   av.it.:  10.9
      thresh= 1.188E-05 alpha_mix =  0.700 |ddv_scf|^2 =  9.457E-10

      iter #   4 total cpu time :   630.2 secs   av.it.:  10.9
      thresh= 3.075E-06 alpha_mix =  0.700 |ddv_scf|^2 =  3.443E-12

      iter #   5 total cpu time :   657.1 secs   av.it.:  11.1
      thresh= 1.856E-07 alpha_mix =  0.700 |ddv_scf|^2 =  1.622E-13

     End of self-consistent calculation

     Convergence has been achieved 
 
     Number of q in the star =    4
     List of q in the star:
          1  -0.166666667   0.166666667  -0.166666667
          2   0.166666667  -0.166666667  -0.166666667
          3  -0.166666667  -0.166666667   0.166666667
          4   0.166666667   0.166666667   0.166666667
     In addition there is the -q list: 
          1   0.166666667  -0.166666667   0.166666667
          2  -0.166666667   0.166666667   0.166666667
          3   0.166666667   0.166666667  -0.166666667
          4  -0.166666667  -0.166666667  -0.166666667

     Diagonalizing the dynamical matrix

     q = (   -0.166666667   0.166666667  -0.166666667 ) 

 **************************************************************************
     freq (    1) =       1.618050 [THz] =      53.972348 [cm-1]
     freq (    2) =       1.618050 [THz] =      53.972348 [cm-1]
     freq (    3) =       4.523056 [THz] =     150.872898 [cm-1]
     freq (    4) =      14.918313 [THz] =     497.621371 [cm-1]
     freq (    5) =      14.953819 [THz] =     498.805702 [cm-1]
     freq (    6) =      14.953819 [THz] =     498.805702 [cm-1]
 **************************************************************************

     Mode symmetry, C_3v (3m)   point group:

     freq (  1 -  2) =         54.0  [cm-1]   --> E    L_3           
     freq (  3 -  3) =        150.9  [cm-1]   --> A_1  L_1           
     freq (  4 -  4) =        497.6  [cm-1]   --> A_1  L_1           
     freq (  5 -  6) =        498.8  [cm-1]   --> E    L_3           

     Calculation of q =   -0.3333333   0.3333333  -0.3333333
 
     Parallelization info
     --------------------
     sticks:   dense  smooth     PW     G-vecs:    dense   smooth      PW
     Min         108     108     40                 1489     1489     340
     Max         109     109     41                 1492     1492     342
     Sum         433     433    163                 5961     5961    1363
 


     bravais-lattice index     =            2
     lattice parameter (alat)  =      10.2600  a.u.
     unit-cell volume          =     270.0114 (a.u.)^3
     number of atoms/cell      =            2
     number of atomic types    =            1
     number of electrons       =         8.00
     number of Kohn-Sham states=            4
     kinetic-energy cutoff     =      30.0000  Ry
     charge density cutoff     =     120.0000  Ry
     Exchange-correlation      =  SLA  PW   PBX  PBC ( 1  4  3  4 0 0)

     celldm(1)=  10.260000  celldm(2)=   0.000000  celldm(3)=   0.000000
     celldm(4)=   0.000000  celldm(5)=   0.000000  celldm(6)=   0.000000

     crystal axes: (cart. coord. in units of alat)
               a(1) = (  -0.500000   0.000000   0.500000 )  
               a(2) = (   0.000000   0.500000   0.500000 )  
               a(3) = (  -0.500000   0.500000   0.000000 )  

     reciprocal axes: (cart. coord. in units 2 pi/alat)
               b(1) = ( -1.000000 -1.000000  1.000000 )  
               b(2) = (  1.000000  1.000000  1.000000 )  
               b(3) = ( -1.000000  1.000000 -1.000000 )  


     PseudoPot. # 1 for Si read from file:
     /home/users/zhennighausen/pslibrary.1.0.0/folder/Si.pbe-n-kjpaw_psl.0.1.UPF
     MD5 check sum: b9d333a40e496bef61db012f150758bf
     Pseudo is Projector augmented-wave + core cor, Zval =  4.0
     Generated using "atomic" code by A. Dal Corso  v.5.0.2 svn rev. 9415
     Shape of augmentation charge: PSQ
     Using radial grid of 1141 points,  4 beta functions with: 
                l(1) =   0
                l(2) =   0
                l(3) =   1
                l(4) =   1
     Q(r) pseudized with 0 coefficients 


     atomic species   valence    mass     pseudopotential
        Si1            4.00    28.08550     Si( 1.00)

     24 Sym. Ops. (no inversion) found



   Cartesian axes

     site n.     atom                  positions (alat units)
         1           Si1 tau(   1) = (   0.0000000   0.0000000   0.0000000  )
         2           Si1 tau(   2) = (   0.2500000   0.2500000   0.2500000  )

     number of k points=   816

     Number of k-points >= 100: set verbosity='high' to print them.

     Dense  grid:     5961 G-vectors     FFT dimensions: (  25,  25,  25)

     Largest allocated arrays     est. size (Mb)     dimensions
        Kohn-Sham Wavefunctions         0.01 Mb     (     195,    4)
        NL pseudopotentials             0.05 Mb     (     195,   16)
        Each V/rho on FFT grid          0.07 Mb     (    4375)
        Each G-vector array             0.01 Mb     (    1491)
        G-vector shells                 0.00 Mb     (     107)
     Largest temporary arrays     est. size (Mb)     dimensions
        Auxiliary wavefunctions         0.05 Mb     (     195,   16)
        Each subspace H/S matrix        0.00 Mb     (      16,   16)
        Each <psi_i|beta_j> matrix      0.00 Mb     (      16,    4)

     Check: negative/imaginary core charge=   -0.000004    0.000000

     The potential is recalculated from file :
     /home/users/zhennighausen/Computational_Klasse/Si-Grosser/_ph0/pwscf.save/charge-density.dat

     Starting wfc are    8 atomic wfcs
     Checking if some PAW data can be deallocated... 

     Band Structure Calculation
     Davidson diagonalization with overlap

     ethr =  1.25E-10,  avg # of iterations = 12.5

     total cpu time spent up to now is       60.3 secs

     End of band structure calculation

     Number of k-points >= 100: set verbosity='high' to print the bands.

     highest occupied level (ev):     6.2074

     Writing output data file pwscf.save

                                                                                

     bravais-lattice index     =            2
     lattice parameter (alat)  =      10.2600  a.u.
     unit-cell volume          =     270.0114 (a.u.)^3
     number of atoms/cell      =            2
     number of atomic types    =            1
     kinetic-energy cut-off    =      30.0000  Ry
     charge density cut-off    =     120.0000  Ry
     convergence threshold     =      1.0E-12
     beta                      =       0.7000
     number of iterations used =            4
     Exchange-correlation      =  SLA  PW   PBX  PBC ( 1  4  3  4 0 0)


     celldm(1)=   10.26000  celldm(2)=    0.00000  celldm(3)=    0.00000
     celldm(4)=    0.00000  celldm(5)=    0.00000  celldm(6)=    0.00000

     crystal axes: (cart. coord. in units of alat)
               a(1) = ( -0.5000  0.0000  0.5000 )  
               a(2) = (  0.0000  0.5000  0.5000 )  
               a(3) = ( -0.5000  0.5000  0.0000 )  

     reciprocal axes: (cart. coord. in units 2 pi/alat)
               b(1) = ( -1.0000 -1.0000  1.0000 )  
               b(2) = (  1.0000  1.0000  1.0000 )  
               b(3) = ( -1.0000  1.0000 -1.0000 )  


     Atoms inside the unit cell: 

     Cartesian axes

     site n.  atom      mass           positions (alat units)
        1     Si1 28.0855   tau(    1) = (    0.00000    0.00000    0.00000  )
        2     Si1 28.0855   tau(    2) = (    0.25000    0.25000    0.25000  )

     Computing dynamical matrix for 
                    q = (  -0.3333333   0.3333333  -0.3333333 )
 
      6 Sym.Ops. (no q -> -q+G )


     G cutoff =  319.9751  (   1491 G-vectors)     FFT grid: ( 25, 25, 25)
     number of k points=   816

     PseudoPot. # 1 for Si read from file:
     /home/users/zhennighausen/pslibrary.1.0.0/folder/Si.pbe-n-kjpaw_psl.0.1.UPF
     MD5 check sum: b9d333a40e496bef61db012f150758bf
     Pseudo is Projector augmented-wave + core cor, Zval =  4.0
     Generated using "atomic" code by A. Dal Corso  v.5.0.2 svn rev. 9415
     Shape of augmentation charge: PSQ
     Using radial grid of 1141 points,  4 beta functions with: 
                l(1) =   0
                l(2) =   0
                l(3) =   1
                l(4) =   1
     Q(r) pseudized with 0 coefficients 


     Mode symmetry, C_3v (3m)   point group:


     Atomic displacements:
     There are   4 irreducible representations

     Representation     1      1 modes -A_1  L_1  To be done

     Representation     2      1 modes -A_1  L_1  To be done

     Representation     3      2 modes -E    L_3  To be done

     Representation     4      2 modes -E    L_3  To be done



     Alpha used in Ewald sum =   1.3000
     PHONON       :  9m16.13s CPU    11m40.51s WALL



     Representation #  1 mode #   1

     Self-consistent Calculation

      iter #   1 total cpu time :   708.8 secs   av.it.:   6.1
      thresh= 1.000E-02 alpha_mix =  0.700 |ddv_scf|^2 =  2.996E-04

      iter #   2 total cpu time :   724.1 secs   av.it.:   9.5
      thresh= 1.731E-03 alpha_mix =  0.700 |ddv_scf|^2 =  2.340E-03

      iter #   3 total cpu time :   735.8 secs   av.it.:   7.6
      thresh= 4.837E-03 alpha_mix =  0.700 |ddv_scf|^2 =  4.241E-07

      iter #   4 total cpu time :   747.7 secs   av.it.:   9.7
      thresh= 6.512E-05 alpha_mix =  0.700 |ddv_scf|^2 =  2.630E-08

      iter #   5 total cpu time :   761.0 secs   av.it.:   9.6
      thresh= 1.622E-05 alpha_mix =  0.700 |ddv_scf|^2 =  3.842E-10

      iter #   6 total cpu time :   773.0 secs   av.it.:   9.8
      thresh= 1.960E-06 alpha_mix =  0.700 |ddv_scf|^2 =  4.572E-11

      iter #   7 total cpu time :   785.0 secs   av.it.:   9.8
      thresh= 6.762E-07 alpha_mix =  0.700 |ddv_scf|^2 =  9.054E-11

      iter #   8 total cpu time :   797.2 secs   av.it.:   8.4
      thresh= 9.515E-07 alpha_mix =  0.700 |ddv_scf|^2 =  9.028E-12

      iter #   9 total cpu time :   808.3 secs   av.it.:   8.8
      thresh= 3.005E-07 alpha_mix =  0.700 |ddv_scf|^2 =  3.736E-12

      iter #  10 total cpu time :   819.6 secs   av.it.:   8.8
      thresh= 1.933E-07 alpha_mix =  0.700 |ddv_scf|^2 =  3.959E-14

     End of self-consistent calculation

     Convergence has been achieved 


     Representation #  2 mode #   2

     Self-consistent Calculation

      iter #   1 total cpu time :   830.0 secs   av.it.:   6.1
      thresh= 1.000E-02 alpha_mix =  0.700 |ddv_scf|^2 =  2.996E-04

      iter #   2 total cpu time :   844.6 secs   av.it.:   9.5
      thresh= 1.731E-03 alpha_mix =  0.700 |ddv_scf|^2 =  2.340E-03

      iter #   3 total cpu time :   856.3 secs   av.it.:   7.6
      thresh= 4.837E-03 alpha_mix =  0.700 |ddv_scf|^2 =  4.242E-07

      iter #   4 total cpu time :   868.2 secs   av.it.:   9.7
      thresh= 6.513E-05 alpha_mix =  0.700 |ddv_scf|^2 =  2.647E-08

      iter #   5 total cpu time :   880.2 secs   av.it.:   9.6
      thresh= 1.627E-05 alpha_mix =  0.700 |ddv_scf|^2 =  3.851E-10

      iter #   6 total cpu time :   893.3 secs   av.it.:   9.8
      thresh= 1.962E-06 alpha_mix =  0.700 |ddv_scf|^2 =  4.592E-11

      iter #   7 total cpu time :   905.3 secs   av.it.:   9.8
      thresh= 6.777E-07 alpha_mix =  0.700 |ddv_scf|^2 =  9.089E-11

      iter #   8 total cpu time :   916.4 secs   av.it.:   8.4
      thresh= 9.533E-07 alpha_mix =  0.700 |ddv_scf|^2 =  8.835E-12

      iter #   9 total cpu time :   928.2 secs   av.it.:   8.8
      thresh= 2.972E-07 alpha_mix =  0.700 |ddv_scf|^2 =  3.761E-12

      iter #  10 total cpu time :   939.5 secs   av.it.:   8.8
      thresh= 1.939E-07 alpha_mix =  0.700 |ddv_scf|^2 =  3.931E-14

     End of self-consistent calculation

     Convergence has been achieved 


     Representation #  3 modes #   3  4

     Self-consistent Calculation

      iter #   1 total cpu time :   962.8 secs   av.it.:   5.2
      thresh= 1.000E-02 alpha_mix =  0.700 |ddv_scf|^2 =  2.354E-07

      iter #   2 total cpu time :   991.2 secs   av.it.:  10.7
      thresh= 4.852E-05 alpha_mix =  0.700 |ddv_scf|^2 =  1.887E-08

      iter #   3 total cpu time :  1019.7 secs   av.it.:  10.7
      thresh= 1.374E-05 alpha_mix =  0.700 |ddv_scf|^2 =  1.460E-09

      iter #   4 total cpu time :  1047.6 secs   av.it.:  10.5
      thresh= 3.821E-06 alpha_mix =  0.700 |ddv_scf|^2 =  3.465E-12

      iter #   5 total cpu time :  1073.6 secs   av.it.:  10.8
      thresh= 1.861E-07 alpha_mix =  0.700 |ddv_scf|^2 =  1.394E-13

     End of self-consistent calculation

     Convergence has been achieved 


     Representation #  4 modes #   5  6

     Self-consistent Calculation

      iter #   1 total cpu time :  1098.4 secs   av.it.:   5.3
      thresh= 1.000E-02 alpha_mix =  0.700 |ddv_scf|^2 =  2.364E-07

      iter #   2 total cpu time :  1127.7 secs   av.it.:  11.0
      thresh= 4.862E-05 alpha_mix =  0.700 |ddv_scf|^2 =  1.899E-08

      iter #   3 total cpu time :  1156.7 secs   av.it.:  11.0
      thresh= 1.378E-05 alpha_mix =  0.700 |ddv_scf|^2 =  1.470E-09

      iter #   4 total cpu time :  1181.8 secs   av.it.:  10.9
      thresh= 3.835E-06 alpha_mix =  0.700 |ddv_scf|^2 =  3.430E-12

      iter #   5 total cpu time :  1209.7 secs   av.it.:  11.0
      thresh= 1.852E-07 alpha_mix =  0.700 |ddv_scf|^2 =  1.371E-13

     End of self-consistent calculation

     Convergence has been achieved 
 
     Number of q in the star =    4
     List of q in the star:
          1  -0.333333333   0.333333333  -0.333333333
          2   0.333333333  -0.333333333  -0.333333333
          3  -0.333333333  -0.333333333   0.333333333
          4   0.333333333   0.333333333   0.333333333
     In addition there is the -q list: 
          1   0.333333333  -0.333333333   0.333333333
          2  -0.333333333   0.333333333   0.333333333
          3   0.333333333   0.333333333  -0.333333333
          4  -0.333333333  -0.333333333  -0.333333333

     Diagonalizing the dynamical matrix

     q = (   -0.333333333   0.333333333  -0.333333333 ) 

 **************************************************************************
     freq (    1) =       2.699778 [THz] =      90.054898 [cm-1]
     freq (    2) =       2.699778 [THz] =      90.054898 [cm-1]
     freq (    3) =       8.638446 [THz] =     288.147541 [cm-1]
     freq (    4) =      13.758553 [THz] =     458.935920 [cm-1]
     freq (    5) =      14.641703 [THz] =     488.394626 [cm-1]
     freq (    6) =      14.641703 [THz] =     488.394626 [cm-1]
 **************************************************************************

     Mode symmetry, C_3v (3m)   point group:

     freq (  1 -  2) =         90.1  [cm-1]   --> E    L_3           
     freq (  3 -  3) =        288.1  [cm-1]   --> A_1  L_1           
     freq (  4 -  4) =        458.9  [cm-1]   --> A_1  L_1           
     freq (  5 -  6) =        488.4  [cm-1]   --> E    L_3           

     Calculation of q =    0.5000000  -0.5000000   0.5000000
 
     Parallelization info
     --------------------
     sticks:   dense  smooth     PW     G-vecs:    dense   smooth      PW
     Min         108     108     40                 1489     1489     362
     Max         109     109     41                 1492     1492     366
     Sum         433     433    163                 5961     5961    1459
 


     bravais-lattice index     =            2
     lattice parameter (alat)  =      10.2600  a.u.
     unit-cell volume          =     270.0114 (a.u.)^3
     number of atoms/cell      =            2
     number of atomic types    =            1
     number of electrons       =         8.00
     number of Kohn-Sham states=            4
     kinetic-energy cutoff     =      30.0000  Ry
     charge density cutoff     =     120.0000  Ry
     Exchange-correlation      =  SLA  PW   PBX  PBC ( 1  4  3  4 0 0)

     celldm(1)=  10.260000  celldm(2)=   0.000000  celldm(3)=   0.000000
     celldm(4)=   0.000000  celldm(5)=   0.000000  celldm(6)=   0.000000

     crystal axes: (cart. coord. in units of alat)
               a(1) = (  -0.500000   0.000000   0.500000 )  
               a(2) = (   0.000000   0.500000   0.500000 )  
               a(3) = (  -0.500000   0.500000   0.000000 )  

     reciprocal axes: (cart. coord. in units 2 pi/alat)
               b(1) = ( -1.000000 -1.000000  1.000000 )  
               b(2) = (  1.000000  1.000000  1.000000 )  
               b(3) = ( -1.000000  1.000000 -1.000000 )  


     PseudoPot. # 1 for Si read from file:
     /home/users/zhennighausen/pslibrary.1.0.0/folder/Si.pbe-n-kjpaw_psl.0.1.UPF
     MD5 check sum: b9d333a40e496bef61db012f150758bf
     Pseudo is Projector augmented-wave + core cor, Zval =  4.0
     Generated using "atomic" code by A. Dal Corso  v.5.0.2 svn rev. 9415
     Shape of augmentation charge: PSQ
     Using radial grid of 1141 points,  4 beta functions with: 
                l(1) =   0
                l(2) =   0
                l(3) =   1
                l(4) =   1
     Q(r) pseudized with 0 coefficients 


     atomic species   valence    mass     pseudopotential
        Si1            4.00    28.08550     Si( 1.00)

     24 Sym. Ops. (no inversion) found



   Cartesian axes

     site n.     atom                  positions (alat units)
         1           Si1 tau(   1) = (   0.0000000   0.0000000   0.0000000  )
         2           Si1 tau(   2) = (   0.2500000   0.2500000   0.2500000  )

     number of k points=   408

     Number of k-points >= 100: set verbosity='high' to print them.

     Dense  grid:     5961 G-vectors     FFT dimensions: (  25,  25,  25)

     Largest allocated arrays     est. size (Mb)     dimensions
        Kohn-Sham Wavefunctions         0.01 Mb     (     196,    4)
        NL pseudopotentials             0.05 Mb     (     196,   16)
        Each V/rho on FFT grid          0.07 Mb     (    4375)
        Each G-vector array             0.01 Mb     (    1491)
        G-vector shells                 0.00 Mb     (     106)
     Largest temporary arrays     est. size (Mb)     dimensions
        Auxiliary wavefunctions         0.05 Mb     (     196,   16)
        Each subspace H/S matrix        0.00 Mb     (      16,   16)
        Each <psi_i|beta_j> matrix      0.00 Mb     (      16,    4)

     Check: negative/imaginary core charge=   -0.000004    0.000000

     The potential is recalculated from file :
     /home/users/zhennighausen/Computational_Klasse/Si-Grosser/_ph0/pwscf.save/charge-density.dat

     Starting wfc are    8 atomic wfcs
     Checking if some PAW data can be deallocated... 

     Band Structure Calculation
     Davidson diagonalization with overlap

     ethr =  1.25E-10,  avg # of iterations = 12.4

     total cpu time spent up to now is       80.1 secs

     End of band structure calculation

     Number of k-points >= 100: set verbosity='high' to print the bands.

     highest occupied level (ev):     6.1327

     Writing output data file pwscf.save

                                                                                

     bravais-lattice index     =            2
     lattice parameter (alat)  =      10.2600  a.u.
     unit-cell volume          =     270.0114 (a.u.)^3
     number of atoms/cell      =            2
     number of atomic types    =            1
     kinetic-energy cut-off    =      30.0000  Ry
     charge density cut-off    =     120.0000  Ry
     convergence threshold     =      1.0E-12
     beta                      =       0.7000
     number of iterations used =            4
     Exchange-correlation      =  SLA  PW   PBX  PBC ( 1  4  3  4 0 0)


     celldm(1)=   10.26000  celldm(2)=    0.00000  celldm(3)=    0.00000
     celldm(4)=    0.00000  celldm(5)=    0.00000  celldm(6)=    0.00000

     crystal axes: (cart. coord. in units of alat)
               a(1) = ( -0.5000  0.0000  0.5000 )  
               a(2) = (  0.0000  0.5000  0.5000 )  
               a(3) = ( -0.5000  0.5000  0.0000 )  

     reciprocal axes: (cart. coord. in units 2 pi/alat)
               b(1) = ( -1.0000 -1.0000  1.0000 )  
               b(2) = (  1.0000  1.0000  1.0000 )  
               b(3) = ( -1.0000  1.0000 -1.0000 )  


     Atoms inside the unit cell: 

     Cartesian axes

     site n.  atom      mass           positions (alat units)
        1     Si1 28.0855   tau(    1) = (    0.00000    0.00000    0.00000  )
        2     Si1 28.0855   tau(    2) = (    0.25000    0.25000    0.25000  )

     Computing dynamical matrix for 
                    q = (   0.5000000  -0.5000000   0.5000000 )
 
      7 Sym.Ops. (with q -> -q+G )


     G cutoff =  319.9751  (   1491 G-vectors)     FFT grid: ( 25, 25, 25)
     number of k points=   408

     PseudoPot. # 1 for Si read from file:
     /home/users/zhennighausen/pslibrary.1.0.0/folder/Si.pbe-n-kjpaw_psl.0.1.UPF
     MD5 check sum: b9d333a40e496bef61db012f150758bf
     Pseudo is Projector augmented-wave + core cor, Zval =  4.0
     Generated using "atomic" code by A. Dal Corso  v.5.0.2 svn rev. 9415
     Shape of augmentation charge: PSQ
     Using radial grid of 1141 points,  4 beta functions with: 
                l(1) =   0
                l(2) =   0
                l(3) =   1
                l(4) =   1
     Q(r) pseudized with 0 coefficients 


     Mode symmetry, C_3v (3m)   point group:


     Atomic displacements:
     There are   4 irreducible representations

     Representation     1      1 modes -A_1  L_1  To be done

     Representation     2      1 modes -A_1  L_1  To be done

     Representation     3      2 modes -E    L_3  To be done

     Representation     4      2 modes -E    L_3  To be done



     Alpha used in Ewald sum =   1.3000
     PHONON       : 16m30.80s CPU    20m34.65s WALL



     Representation #  1 mode #   1

     Self-consistent Calculation

      iter #   1 total cpu time :  1239.0 secs   av.it.:   6.0
      thresh= 1.000E-02 alpha_mix =  0.700 |ddv_scf|^2 =  7.717E-05

      iter #   2 total cpu time :  1245.4 secs   av.it.:   9.8
      thresh= 8.785E-04 alpha_mix =  0.700 |ddv_scf|^2 =  2.372E-04

      iter #   3 total cpu time :  1251.4 secs   av.it.:   8.8
      thresh= 1.540E-03 alpha_mix =  0.700 |ddv_scf|^2 =  5.623E-07

      iter #   4 total cpu time :  1257.6 secs   av.it.:   9.2
      thresh= 7.499E-05 alpha_mix =  0.700 |ddv_scf|^2 =  1.739E-08

      iter #   5 total cpu time :  1263.9 secs   av.it.:   9.4
      thresh= 1.319E-05 alpha_mix =  0.700 |ddv_scf|^2 =  2.086E-10

      iter #   6 total cpu time :  1272.3 secs   av.it.:   9.9
      thresh= 1.444E-06 alpha_mix =  0.700 |ddv_scf|^2 =  1.177E-11

      iter #   7 total cpu time :  1278.6 secs   av.it.:   9.9
      thresh= 3.430E-07 alpha_mix =  0.700 |ddv_scf|^2 =  7.080E-13

     End of self-consistent calculation

     Convergence has been achieved 


     Representation #  2 mode #   2

     Self-consistent Calculation

      iter #   1 total cpu time :  1284.0 secs   av.it.:   6.0
      thresh= 1.000E-02 alpha_mix =  0.700 |ddv_scf|^2 =  7.717E-05

      iter #   2 total cpu time :  1290.4 secs   av.it.:   9.8
      thresh= 8.785E-04 alpha_mix =  0.700 |ddv_scf|^2 =  2.372E-04

      iter #   3 total cpu time :  1296.4 secs   av.it.:   8.8
      thresh= 1.540E-03 alpha_mix =  0.700 |ddv_scf|^2 =  5.626E-07

      iter #   4 total cpu time :  1302.6 secs   av.it.:   9.2
      thresh= 7.501E-05 alpha_mix =  0.700 |ddv_scf|^2 =  1.753E-08

      iter #   5 total cpu time :  1310.4 secs   av.it.:   9.4
      thresh= 1.324E-05 alpha_mix =  0.700 |ddv_scf|^2 =  2.087E-10

      iter #   6 total cpu time :  1316.9 secs   av.it.:   9.9
      thresh= 1.445E-06 alpha_mix =  0.700 |ddv_scf|^2 =  1.177E-11

      iter #   7 total cpu time :  1323.2 secs   av.it.:   9.9
      thresh= 3.431E-07 alpha_mix =  0.700 |ddv_scf|^2 =  6.987E-13

     End of self-consistent calculation

     Convergence has been achieved 


     Representation #  3 modes #   3  4

     Self-consistent Calculation

      iter #   1 total cpu time :  1332.1 secs   av.it.:   5.2
      thresh= 1.000E-02 alpha_mix =  0.700 |ddv_scf|^2 =  2.533E-07

      iter #   2 total cpu time :  1348.4 secs   av.it.:  10.8
      thresh= 5.033E-05 alpha_mix =  0.700 |ddv_scf|^2 =  2.141E-08

      iter #   3 total cpu time :  1361.5 secs   av.it.:  10.7
      thresh= 1.463E-05 alpha_mix =  0.700 |ddv_scf|^2 =  1.625E-09

      iter #   4 total cpu time :  1376.2 secs   av.it.:  10.6
      thresh= 4.031E-06 alpha_mix =  0.700 |ddv_scf|^2 =  3.446E-12

      iter #   5 total cpu time :  1389.1 secs   av.it.:  10.6
      thresh= 1.856E-07 alpha_mix =  0.700 |ddv_scf|^2 =  1.410E-13

     End of self-consistent calculation

     Convergence has been achieved 


     Representation #  4 modes #   5  6

     Self-consistent Calculation

      iter #   1 total cpu time :  1398.3 secs   av.it.:   5.2
      thresh= 1.000E-02 alpha_mix =  0.700 |ddv_scf|^2 =  2.542E-07

      iter #   2 total cpu time :  1414.0 secs   av.it.:  10.9
      thresh= 5.042E-05 alpha_mix =  0.700 |ddv_scf|^2 =  2.153E-08

      iter #   3 total cpu time :  1427.3 secs   av.it.:  10.8
      thresh= 1.467E-05 alpha_mix =  0.700 |ddv_scf|^2 =  1.636E-09

      iter #   4 total cpu time :  1441.2 secs   av.it.:  10.7
      thresh= 4.045E-06 alpha_mix =  0.700 |ddv_scf|^2 =  3.414E-12

      iter #   5 total cpu time :  1454.8 secs   av.it.:  10.8
      thresh= 1.848E-07 alpha_mix =  0.700 |ddv_scf|^2 =  1.394E-13

     End of self-consistent calculation

     Convergence has been achieved 
 
     Number of q in the star =    4
     List of q in the star:
          1   0.500000000  -0.500000000   0.500000000
          2  -0.500000000   0.500000000   0.500000000
          3   0.500000000   0.500000000  -0.500000000
          4  -0.500000000  -0.500000000  -0.500000000

     Diagonalizing the dynamical matrix

     q = (    0.500000000  -0.500000000   0.500000000 ) 

 **************************************************************************
     freq (    1) =       2.845817 [THz] =      94.926248 [cm-1]
     freq (    2) =       2.845817 [THz] =      94.926248 [cm-1]
     freq (    3) =      11.074884 [THz] =     369.418381 [cm-1]
     freq (    4) =      12.297651 [THz] =     410.205486 [cm-1]
     freq (    5) =      14.577564 [THz] =     486.255187 [cm-1]
     freq (    6) =      14.577564 [THz] =     486.255187 [cm-1]
 **************************************************************************

     Mode symmetry, C_3v (3m)   point group:

     freq (  1 -  2) =         94.9  [cm-1]   --> E    L_3           
     freq (  3 -  3) =        369.4  [cm-1]   --> A_1  L_1           
     freq (  4 -  4) =        410.2  [cm-1]   --> A_1  L_1           
     freq (  5 -  6) =        486.3  [cm-1]   --> E    L_3           

     Calculation of q =    0.0000000   0.3333333   0.0000000
 
     Parallelization info
     --------------------
     sticks:   dense  smooth     PW     G-vecs:    dense   smooth      PW
     Min         108     108     37                 1489     1489     309
     Max         109     109     38                 1492     1492     312
     Sum         433     433    151                 5961     5961    1243
 


     bravais-lattice index     =            2
     lattice parameter (alat)  =      10.2600  a.u.
     unit-cell volume          =     270.0114 (a.u.)^3
     number of atoms/cell      =            2
     number of atomic types    =            1
     number of electrons       =         8.00
     number of Kohn-Sham states=            4
     kinetic-energy cutoff     =      30.0000  Ry
     charge density cutoff     =     120.0000  Ry
     Exchange-correlation      =  SLA  PW   PBX  PBC ( 1  4  3  4 0 0)

     celldm(1)=  10.260000  celldm(2)=   0.000000  celldm(3)=   0.000000
     celldm(4)=   0.000000  celldm(5)=   0.000000  celldm(6)=   0.000000

     crystal axes: (cart. coord. in units of alat)
               a(1) = (  -0.500000   0.000000   0.500000 )  
               a(2) = (   0.000000   0.500000   0.500000 )  
               a(3) = (  -0.500000   0.500000   0.000000 )  

     reciprocal axes: (cart. coord. in units 2 pi/alat)
               b(1) = ( -1.000000 -1.000000  1.000000 )  
               b(2) = (  1.000000  1.000000  1.000000 )  
               b(3) = ( -1.000000  1.000000 -1.000000 )  


     PseudoPot. # 1 for Si read from file:
     /home/users/zhennighausen/pslibrary.1.0.0/folder/Si.pbe-n-kjpaw_psl.0.1.UPF
     MD5 check sum: b9d333a40e496bef61db012f150758bf
     Pseudo is Projector augmented-wave + core cor, Zval =  4.0
     Generated using "atomic" code by A. Dal Corso  v.5.0.2 svn rev. 9415
     Shape of augmentation charge: PSQ
     Using radial grid of 1141 points,  4 beta functions with: 
                l(1) =   0
                l(2) =   0
                l(3) =   1
                l(4) =   1
     Q(r) pseudized with 0 coefficients 


     atomic species   valence    mass     pseudopotential
        Si1            4.00    28.08550     Si( 1.00)

     24 Sym. Ops. (no inversion) found



   Cartesian axes

     site n.     atom                  positions (alat units)
         1           Si1 tau(   1) = (   0.0000000   0.0000000   0.0000000  )
         2           Si1 tau(   2) = (   0.2500000   0.2500000   0.2500000  )

     number of k points=  1152

     Number of k-points >= 100: set verbosity='high' to print them.

     Dense  grid:     5961 G-vectors     FFT dimensions: (  25,  25,  25)

     Largest allocated arrays     est. size (Mb)     dimensions
        Kohn-Sham Wavefunctions         0.01 Mb     (     203,    4)
        NL pseudopotentials             0.05 Mb     (     203,   16)
        Each V/rho on FFT grid          0.07 Mb     (    4375)
        Each G-vector array             0.01 Mb     (    1491)
        G-vector shells                 0.00 Mb     (     108)
     Largest temporary arrays     est. size (Mb)     dimensions
        Auxiliary wavefunctions         0.05 Mb     (     203,   16)
        Each subspace H/S matrix        0.00 Mb     (      16,   16)
        Each <psi_i|beta_j> matrix      0.00 Mb     (      16,    4)

     Check: negative/imaginary core charge=   -0.000004    0.000000

     The potential is recalculated from file :
     /home/users/zhennighausen/Computational_Klasse/Si-Grosser/_ph0/pwscf.save/charge-density.dat

     Starting wfc are    8 atomic wfcs
     Checking if some PAW data can be deallocated... 

     Band Structure Calculation
     Davidson diagonalization with overlap

     ethr =  1.25E-10,  avg # of iterations = 12.5

     total cpu time spent up to now is      125.2 secs

     End of band structure calculation

     Number of k-points >= 100: set verbosity='high' to print the bands.

     highest occupied level (ev):     6.1942

     Writing output data file pwscf.save

                                                                                

     bravais-lattice index     =            2
     lattice parameter (alat)  =      10.2600  a.u.
     unit-cell volume          =     270.0114 (a.u.)^3
     number of atoms/cell      =            2
     number of atomic types    =            1
     kinetic-energy cut-off    =      30.0000  Ry
     charge density cut-off    =     120.0000  Ry
     convergence threshold     =      1.0E-12
     beta                      =       0.7000
     number of iterations used =            4
     Exchange-correlation      =  SLA  PW   PBX  PBC ( 1  4  3  4 0 0)


     celldm(1)=   10.26000  celldm(2)=    0.00000  celldm(3)=    0.00000
     celldm(4)=    0.00000  celldm(5)=    0.00000  celldm(6)=    0.00000

     crystal axes: (cart. coord. in units of alat)
               a(1) = ( -0.5000  0.0000  0.5000 )  
               a(2) = (  0.0000  0.5000  0.5000 )  
               a(3) = ( -0.5000  0.5000  0.0000 )  

     reciprocal axes: (cart. coord. in units 2 pi/alat)
               b(1) = ( -1.0000 -1.0000  1.0000 )  
               b(2) = (  1.0000  1.0000  1.0000 )  
               b(3) = ( -1.0000  1.0000 -1.0000 )  


     Atoms inside the unit cell: 

     Cartesian axes

     site n.  atom      mass           positions (alat units)
        1     Si1 28.0855   tau(    1) = (    0.00000    0.00000    0.00000  )
        2     Si1 28.0855   tau(    2) = (    0.25000    0.25000    0.25000  )

     Computing dynamical matrix for 
                    q = (   0.0000000   0.3333333   0.0000000 )
 
      4 Sym.Ops. (no q -> -q+G )


     G cutoff =  319.9751  (   1491 G-vectors)     FFT grid: ( 25, 25, 25)
     number of k points=  1152

     PseudoPot. # 1 for Si read from file:
     /home/users/zhennighausen/pslibrary.1.0.0/folder/Si.pbe-n-kjpaw_psl.0.1.UPF
     MD5 check sum: b9d333a40e496bef61db012f150758bf
     Pseudo is Projector augmented-wave + core cor, Zval =  4.0
     Generated using "atomic" code by A. Dal Corso  v.5.0.2 svn rev. 9415
     Shape of augmentation charge: PSQ
     Using radial grid of 1141 points,  4 beta functions with: 
                l(1) =   0
                l(2) =   0
                l(3) =   1
                l(4) =   1
     Q(r) pseudized with 0 coefficients 


     Mode symmetry, C_2v (mm2)  point group:


     Atomic displacements:
     There are   6 irreducible representations

     Representation     1      1 modes -A_1  D_1  S_1  To be done

     Representation     2      1 modes -A_1  D_1  S_1  To be done

     Representation     3      1 modes -B_1  D_3  S_3  To be done

     Representation     4      1 modes -B_1  D_3  S_3  To be done

     Representation     5      1 modes -B_2  D_4  S_4  To be done

     Representation     6      1 modes -B_2  D_4  S_4  To be done



     Alpha used in Ewald sum =   1.3000
     PHONON       : 20m18.92s CPU    25m10.86s WALL



     Representation #  1 mode #   1

     Self-consistent Calculation

      iter #   1 total cpu time :  1526.2 secs   av.it.:   6.1
      thresh= 1.000E-02 alpha_mix =  0.700 |ddv_scf|^2 =  3.153E-03

      iter #   2 total cpu time :  1541.0 secs   av.it.:   8.6
      thresh= 5.615E-03 alpha_mix =  0.700 |ddv_scf|^2 =  9.194E-02

      iter #   3 total cpu time :  1557.9 secs   av.it.:   7.6
      thresh= 1.000E-02 alpha_mix =  0.700 |ddv_scf|^2 =  1.554E-07

      iter #   4 total cpu time :  1574.4 secs   av.it.:   9.9
      thresh= 3.942E-05 alpha_mix =  0.700 |ddv_scf|^2 =  1.992E-08

      iter #   5 total cpu time :  1593.3 secs   av.it.:   9.8
      thresh= 1.411E-05 alpha_mix =  0.700 |ddv_scf|^2 =  3.052E-09

      iter #   6 total cpu time :  1609.0 secs   av.it.:   9.3
      thresh= 5.524E-06 alpha_mix =  0.700 |ddv_scf|^2 =  5.353E-11

      iter #   7 total cpu time :  1625.7 secs   av.it.:   8.6
      thresh= 7.316E-07 alpha_mix =  0.700 |ddv_scf|^2 =  2.013E-10

      iter #   8 total cpu time :  1639.1 secs   av.it.:   7.5
      thresh= 1.419E-06 alpha_mix =  0.700 |ddv_scf|^2 =  6.123E-11

      iter #   9 total cpu time :  1652.3 secs   av.it.:   6.9
      thresh= 7.825E-07 alpha_mix =  0.700 |ddv_scf|^2 =  5.494E-13

     End of self-consistent calculation

     Convergence has been achieved 


     Representation #  2 mode #   2

     Self-consistent Calculation

      iter #   1 total cpu time :  1670.0 secs   av.it.:   6.1
      thresh= 1.000E-02 alpha_mix =  0.700 |ddv_scf|^2 =  3.153E-03

      iter #   2 total cpu time :  1688.4 secs   av.it.:   8.6
      thresh= 5.615E-03 alpha_mix =  0.700 |ddv_scf|^2 =  9.194E-02

      iter #   3 total cpu time :  1702.2 secs   av.it.:   7.6
      thresh= 1.000E-02 alpha_mix =  0.700 |ddv_scf|^2 =  1.539E-07

      iter #   4 total cpu time :  1721.0 secs   av.it.:   9.9
      thresh= 3.924E-05 alpha_mix =  0.700 |ddv_scf|^2 =  1.978E-08

      iter #   5 total cpu time :  1737.9 secs   av.it.:   9.8
      thresh= 1.406E-05 alpha_mix =  0.700 |ddv_scf|^2 =  3.005E-09

      iter #   6 total cpu time :  1755.7 secs   av.it.:   9.4
      thresh= 5.482E-06 alpha_mix =  0.700 |ddv_scf|^2 =  5.306E-11

      iter #   7 total cpu time :  1770.6 secs   av.it.:   8.6
      thresh= 7.284E-07 alpha_mix =  0.700 |ddv_scf|^2 =  2.015E-10

      iter #   8 total cpu time :  1785.4 secs   av.it.:   7.5
      thresh= 1.420E-06 alpha_mix =  0.700 |ddv_scf|^2 =  6.243E-11

      iter #   9 total cpu time :  1797.8 secs   av.it.:   6.9
      thresh= 7.901E-07 alpha_mix =  0.700 |ddv_scf|^2 =  5.800E-13

     End of self-consistent calculation

     Convergence has been achieved 


     Representation #  3 mode #   3

     Self-consistent Calculation

      iter #   1 total cpu time :  1813.8 secs   av.it.:   5.2
      thresh= 1.000E-02 alpha_mix =  0.700 |ddv_scf|^2 =  1.075E-06

      iter #   2 total cpu time :  1833.7 secs   av.it.:   9.8
      thresh= 1.037E-04 alpha_mix =  0.700 |ddv_scf|^2 =  9.907E-08

      iter #   3 total cpu time :  1851.1 secs   av.it.:   9.8
      thresh= 3.148E-05 alpha_mix =  0.700 |ddv_scf|^2 =  7.423E-09

      iter #   4 total cpu time :  1869.1 secs   av.it.:   9.7
      thresh= 8.616E-06 alpha_mix =  0.700 |ddv_scf|^2 =  1.507E-11

      iter #   5 total cpu time :  1885.8 secs   av.it.:   9.8
      thresh= 3.882E-07 alpha_mix =  0.700 |ddv_scf|^2 =  4.431E-13

     End of self-consistent calculation

     Convergence has been achieved 


     Representation #  4 mode #   4

     Self-consistent Calculation

      iter #   1 total cpu time :  1901.7 secs   av.it.:   5.2
      thresh= 1.000E-02 alpha_mix =  0.700 |ddv_scf|^2 =  1.072E-06

      iter #   2 total cpu time :  1920.0 secs   av.it.:   9.8
      thresh= 1.035E-04 alpha_mix =  0.700 |ddv_scf|^2 =  9.862E-08

      iter #   3 total cpu time :  1938.8 secs   av.it.:   9.8
      thresh= 3.140E-05 alpha_mix =  0.700 |ddv_scf|^2 =  7.371E-09

      iter #   4 total cpu time :  1955.1 secs   av.it.:   9.7
      thresh= 8.586E-06 alpha_mix =  0.700 |ddv_scf|^2 =  1.518E-11

      iter #   5 total cpu time :  1973.5 secs   av.it.:   9.8
      thresh= 3.896E-07 alpha_mix =  0.700 |ddv_scf|^2 =  4.467E-13

     End of self-consistent calculation

     Convergence has been achieved 


     Representation #  5 mode #   5

     Self-consistent Calculation

      iter #   1 total cpu time :  1988.5 secs   av.it.:   5.2
      thresh= 1.000E-02 alpha_mix =  0.700 |ddv_scf|^2 =  1.072E-06

      iter #   2 total cpu time :  2007.9 secs   av.it.:   9.8
      thresh= 1.035E-04 alpha_mix =  0.700 |ddv_scf|^2 =  9.866E-08

      iter #   3 total cpu time :  2024.8 secs   av.it.:   9.8
      thresh= 3.141E-05 alpha_mix =  0.700 |ddv_scf|^2 =  7.375E-09

      iter #   4 total cpu time :  2043.5 secs   av.it.:   9.7
      thresh= 8.588E-06 alpha_mix =  0.700 |ddv_scf|^2 =  1.519E-11

      iter #   5 total cpu time :  2059.8 secs   av.it.:   9.8
      thresh= 3.897E-07 alpha_mix =  0.700 |ddv_scf|^2 =  4.469E-13

     End of self-consistent calculation

     Convergence has been achieved 


     Representation #  6 mode #   6

     Self-consistent Calculation

      iter #   1 total cpu time :  2076.8 secs   av.it.:   5.2
      thresh= 1.000E-02 alpha_mix =  0.700 |ddv_scf|^2 =  1.076E-06

      iter #   2 total cpu time :  2095.6 secs   av.it.:   9.8
      thresh= 1.037E-04 alpha_mix =  0.700 |ddv_scf|^2 =  9.910E-08

      iter #   3 total cpu time :  2113.4 secs   av.it.:   9.8
      thresh= 3.148E-05 alpha_mix =  0.700 |ddv_scf|^2 =  7.426E-09

      iter #   4 total cpu time :  2132.1 secs   av.it.:   9.7
      thresh= 8.618E-06 alpha_mix =  0.700 |ddv_scf|^2 =  1.508E-11

      iter #   5 total cpu time :  2148.4 secs   av.it.:   9.8
      thresh= 3.883E-07 alpha_mix =  0.700 |ddv_scf|^2 =  4.433E-13

     End of self-consistent calculation

     Convergence has been achieved 
 
     Number of q in the star =    6
     List of q in the star:
          1   0.000000000   0.333333333   0.000000000
          2  -0.333333333   0.000000000   0.000000000
          3   0.000000000  -0.333333333   0.000000000
          4   0.000000000   0.000000000   0.333333333
          5   0.000000000   0.000000000  -0.333333333
          6   0.333333333   0.000000000   0.000000000

     Diagonalizing the dynamical matrix

     q = (    0.000000000   0.333333333   0.000000000 ) 

 **************************************************************************
     freq (    1) =       2.556670 [THz] =      85.281348 [cm-1]
     freq (    2) =       2.556670 [THz] =      85.281348 [cm-1]
     freq (    3) =       4.714263 [THz] =     157.250888 [cm-1]
     freq (    4) =      14.559923 [THz] =     485.666764 [cm-1]
     freq (    5) =      14.559923 [THz] =     485.666764 [cm-1]
     freq (    6) =      15.033348 [THz] =     501.458515 [cm-1]
 **************************************************************************

     Mode symmetry, C_2v (mm2)  point group:

     freq (  1 -  1) =         85.3  [cm-1]   --> B_1  D_3  S_3      
     freq (  2 -  2) =         85.3  [cm-1]   --> B_2  D_4  S_4      
     freq (  3 -  3) =        157.3  [cm-1]   --> A_1  D_1  S_1      
     freq (  4 -  4) =        485.7  [cm-1]   --> B_1  D_3  S_3      
     freq (  5 -  5) =        485.7  [cm-1]   --> B_2  D_4  S_4      
     freq (  6 -  6) =        501.5  [cm-1]   --> A_1  D_1  S_1      

     Calculation of q =   -0.1666667   0.5000000  -0.1666667
 
     Parallelization info
     --------------------
     sticks:   dense  smooth     PW     G-vecs:    dense   smooth      PW
     Min         108     108     40                 1489     1489     340
     Max         109     109     41                 1492     1492     342
     Sum         433     433    163                 5961     5961    1363
 


     bravais-lattice index     =            2
     lattice parameter (alat)  =      10.2600  a.u.
     unit-cell volume          =     270.0114 (a.u.)^3
     number of atoms/cell      =            2
     number of atomic types    =            1
     number of electrons       =         8.00
     number of Kohn-Sham states=            4
     kinetic-energy cutoff     =      30.0000  Ry
     charge density cutoff     =     120.0000  Ry
     Exchange-correlation      =  SLA  PW   PBX  PBC ( 1  4  3  4 0 0)

     celldm(1)=  10.260000  celldm(2)=   0.000000  celldm(3)=   0.000000
     celldm(4)=   0.000000  celldm(5)=   0.000000  celldm(6)=   0.000000

     crystal axes: (cart. coord. in units of alat)
               a(1) = (  -0.500000   0.000000   0.500000 )  
               a(2) = (   0.000000   0.500000   0.500000 )  
               a(3) = (  -0.500000   0.500000   0.000000 )  

     reciprocal axes: (cart. coord. in units 2 pi/alat)
               b(1) = ( -1.000000 -1.000000  1.000000 )  
               b(2) = (  1.000000  1.000000  1.000000 )  
               b(3) = ( -1.000000  1.000000 -1.000000 )  


     PseudoPot. # 1 for Si read from file:
     /home/users/zhennighausen/pslibrary.1.0.0/folder/Si.pbe-n-kjpaw_psl.0.1.UPF
     MD5 check sum: b9d333a40e496bef61db012f150758bf
     Pseudo is Projector augmented-wave + core cor, Zval =  4.0
     Generated using "atomic" code by A. Dal Corso  v.5.0.2 svn rev. 9415
     Shape of augmentation charge: PSQ
     Using radial grid of 1141 points,  4 beta functions with: 
                l(1) =   0
                l(2) =   0
                l(3) =   1
                l(4) =   1
     Q(r) pseudized with 0 coefficients 


     atomic species   valence    mass     pseudopotential
        Si1            4.00    28.08550     Si( 1.00)

     24 Sym. Ops. (no inversion) found



   Cartesian axes

     site n.     atom                  positions (alat units)
         1           Si1 tau(   1) = (   0.0000000   0.0000000   0.0000000  )
         2           Si1 tau(   2) = (   0.2500000   0.2500000   0.2500000  )

     number of k points=  2176

     Number of k-points >= 100: set verbosity='high' to print them.

     Dense  grid:     5961 G-vectors     FFT dimensions: (  25,  25,  25)

     Largest allocated arrays     est. size (Mb)     dimensions
        Kohn-Sham Wavefunctions         0.01 Mb     (     195,    4)
        NL pseudopotentials             0.05 Mb     (     195,   16)
        Each V/rho on FFT grid          0.07 Mb     (    4375)
        Each G-vector array             0.01 Mb     (    1491)
        G-vector shells                 0.00 Mb     (     107)
     Largest temporary arrays     est. size (Mb)     dimensions
        Auxiliary wavefunctions         0.05 Mb     (     195,   16)
        Each subspace H/S matrix        0.00 Mb     (      16,   16)
        Each <psi_i|beta_j> matrix      0.00 Mb     (      16,    4)

     Check: negative/imaginary core charge=   -0.000004    0.000000

     The potential is recalculated from file :
     /home/users/zhennighausen/Computational_Klasse/Si-Grosser/_ph0/pwscf.save/charge-density.dat

     Starting wfc are    8 atomic wfcs
     Checking if some PAW data can be deallocated... 

     Band Structure Calculation
     Davidson diagonalization with overlap

     ethr =  1.25E-10,  avg # of iterations = 12.5

     total cpu time spent up to now is      209.0 secs

     End of band structure calculation

     Number of k-points >= 100: set verbosity='high' to print the bands.

     highest occupied level (ev):     6.1764

     Writing output data file pwscf.save

                                                                                

     bravais-lattice index     =            2
     lattice parameter (alat)  =      10.2600  a.u.
     unit-cell volume          =     270.0114 (a.u.)^3
     number of atoms/cell      =            2
     number of atomic types    =            1
     kinetic-energy cut-off    =      30.0000  Ry
     charge density cut-off    =     120.0000  Ry
     convergence threshold     =      1.0E-12
     beta                      =       0.7000
     number of iterations used =            4
     Exchange-correlation      =  SLA  PW   PBX  PBC ( 1  4  3  4 0 0)


     celldm(1)=   10.26000  celldm(2)=    0.00000  celldm(3)=    0.00000
     celldm(4)=    0.00000  celldm(5)=    0.00000  celldm(6)=    0.00000

     crystal axes: (cart. coord. in units of alat)
               a(1) = ( -0.5000  0.0000  0.5000 )  
               a(2) = (  0.0000  0.5000  0.5000 )  
               a(3) = ( -0.5000  0.5000  0.0000 )  

     reciprocal axes: (cart. coord. in units 2 pi/alat)
               b(1) = ( -1.0000 -1.0000  1.0000 )  
               b(2) = (  1.0000  1.0000  1.0000 )  
               b(3) = ( -1.0000  1.0000 -1.0000 )  


     Atoms inside the unit cell: 

     Cartesian axes

     site n.  atom      mass           positions (alat units)
        1     Si1 28.0855   tau(    1) = (    0.00000    0.00000    0.00000  )
        2     Si1 28.0855   tau(    2) = (    0.25000    0.25000    0.25000  )

     Computing dynamical matrix for 
                    q = (  -0.1666667   0.5000000  -0.1666667 )
 
      2 Sym.Ops. (no q -> -q+G )


     G cutoff =  319.9751  (   1491 G-vectors)     FFT grid: ( 25, 25, 25)
     number of k points=  2176

     PseudoPot. # 1 for Si read from file:
     /home/users/zhennighausen/pslibrary.1.0.0/folder/Si.pbe-n-kjpaw_psl.0.1.UPF
     MD5 check sum: b9d333a40e496bef61db012f150758bf
     Pseudo is Projector augmented-wave + core cor, Zval =  4.0
     Generated using "atomic" code by A. Dal Corso  v.5.0.2 svn rev. 9415
     Shape of augmentation charge: PSQ
     Using radial grid of 1141 points,  4 beta functions with: 
                l(1) =   0
                l(2) =   0
                l(3) =   1
                l(4) =   1
     Q(r) pseudized with 0 coefficients 


     Mode symmetry, C_s (m)     point group:


     Atomic displacements:
     There are   6 irreducible representations

     Representation     1      1 modes -A'  To be done

     Representation     2      1 modes -A'  To be done

     Representation     3      1 modes -A'  To be done

     Representation     4      1 modes -A'  To be done

     Representation     5      1 modes -A''  To be done

     Representation     6      1 modes -A''  To be done



     Alpha used in Ewald sum =   1.3000
     PHONON       : 30m28.54s CPU    37m30.72s WALL



     Representation #  1 mode #   1

     Self-consistent Calculation

      iter #   1 total cpu time :  2279.1 secs   av.it.:   6.0
      thresh= 1.000E-02 alpha_mix =  0.700 |ddv_scf|^2 =  1.510E-04

      iter #   2 total cpu time :  2314.4 secs   av.it.:   9.6
      thresh= 1.229E-03 alpha_mix =  0.700 |ddv_scf|^2 =  1.558E-03

      iter #   3 total cpu time :  2344.0 secs   av.it.:   7.6
      thresh= 3.948E-03 alpha_mix =  0.700 |ddv_scf|^2 =  2.910E-07

      iter #   4 total cpu time :  2378.1 secs   av.it.:  10.0
      thresh= 5.394E-05 alpha_mix =  0.700 |ddv_scf|^2 =  2.232E-08

      iter #   5 total cpu time :  2412.4 secs   av.it.:   9.9
      thresh= 1.494E-05 alpha_mix =  0.700 |ddv_scf|^2 =  6.648E-10

      iter #   6 total cpu time :  2448.6 secs   av.it.:  10.1
      thresh= 2.578E-06 alpha_mix =  0.700 |ddv_scf|^2 =  3.219E-11

      iter #   7 total cpu time :  2486.3 secs   av.it.:  10.1
      thresh= 5.674E-07 alpha_mix =  0.700 |ddv_scf|^2 =  2.173E-11

      iter #   8 total cpu time :  2518.1 secs   av.it.:   8.9
      thresh= 4.662E-07 alpha_mix =  0.700 |ddv_scf|^2 =  2.499E-11

      iter #   9 total cpu time :  2548.5 secs   av.it.:   8.6
      thresh= 4.999E-07 alpha_mix =  0.700 |ddv_scf|^2 =  9.179E-12

      iter #  10 total cpu time :  2582.0 secs   av.it.:   8.4
      thresh= 3.030E-07 alpha_mix =  0.700 |ddv_scf|^2 =  7.565E-14

     End of self-consistent calculation

     Convergence has been achieved 


     Representation #  2 mode #   2

     Self-consistent Calculation

      iter #   1 total cpu time :  2612.6 secs   av.it.:   6.1
      thresh= 1.000E-02 alpha_mix =  0.700 |ddv_scf|^2 =  3.551E-04

      iter #   2 total cpu time :  2647.9 secs   av.it.:   9.6
      thresh= 1.884E-03 alpha_mix =  0.700 |ddv_scf|^2 =  3.754E-03

      iter #   3 total cpu time :  2677.5 secs   av.it.:   7.6
      thresh= 6.127E-03 alpha_mix =  0.700 |ddv_scf|^2 =  1.685E-07

      iter #   4 total cpu time :  2712.0 secs   av.it.:  10.2
      thresh= 4.105E-05 alpha_mix =  0.700 |ddv_scf|^2 =  2.996E-08

      iter #   5 total cpu time :  2746.3 secs   av.it.:   9.9
      thresh= 1.731E-05 alpha_mix =  0.700 |ddv_scf|^2 =  8.136E-10

      iter #   6 total cpu time :  2785.2 secs   av.it.:  10.1
      thresh= 2.852E-06 alpha_mix =  0.700 |ddv_scf|^2 =  7.183E-11

      iter #   7 total cpu time :  2820.0 secs   av.it.:  10.0
      thresh= 8.475E-07 alpha_mix =  0.700 |ddv_scf|^2 =  4.223E-12

      iter #   8 total cpu time :  2853.6 secs   av.it.:   9.7
      thresh= 2.055E-07 alpha_mix =  0.700 |ddv_scf|^2 =  3.790E-11

      iter #   9 total cpu time :  2883.9 secs   av.it.:   7.6
      thresh= 6.156E-07 alpha_mix =  0.700 |ddv_scf|^2 =  4.764E-13

     End of self-consistent calculation

     Convergence has been achieved 


     Representation #  3 mode #   3

     Self-consistent Calculation

      iter #   1 total cpu time :  2917.9 secs   av.it.:   6.0
      thresh= 1.000E-02 alpha_mix =  0.700 |ddv_scf|^2 =  2.583E-04

      iter #   2 total cpu time :  2951.5 secs   av.it.:   9.6
      thresh= 1.607E-03 alpha_mix =  0.700 |ddv_scf|^2 =  2.746E-03

      iter #   3 total cpu time :  2980.1 secs   av.it.:   7.6
      thresh= 5.241E-03 alpha_mix =  0.700 |ddv_scf|^2 =  2.320E-07

      iter #   4 total cpu time :  3015.9 secs   av.it.:  10.1
      thresh= 4.817E-05 alpha_mix =  0.700 |ddv_scf|^2 =  2.953E-08

      iter #   5 total cpu time :  3049.8 secs   av.it.:   9.9
      thresh= 1.718E-05 alpha_mix =  0.700 |ddv_scf|^2 =  8.702E-10

      iter #   6 total cpu time :  3085.8 secs   av.it.:  10.2
      thresh= 2.950E-06 alpha_mix =  0.700 |ddv_scf|^2 =  6.460E-11

      iter #   7 total cpu time :  3121.3 secs   av.it.:  10.1
      thresh= 8.037E-07 alpha_mix =  0.700 |ddv_scf|^2 =  1.838E-12

      iter #   8 total cpu time :  3156.1 secs   av.it.:   9.8
      thresh= 1.356E-07 alpha_mix =  0.700 |ddv_scf|^2 =  1.393E-11

      iter #   9 total cpu time :  3185.4 secs   av.it.:   8.0
      thresh= 3.732E-07 alpha_mix =  0.700 |ddv_scf|^2 =  2.352E-14

     End of self-consistent calculation

     Convergence has been achieved 


     Representation #  4 mode #   4

     Self-consistent Calculation

      iter #   1 total cpu time :  3216.6 secs   av.it.:   5.7
      thresh= 1.000E-02 alpha_mix =  0.700 |ddv_scf|^2 =  5.400E-05

      iter #   2 total cpu time :  3250.5 secs   av.it.:   9.8
      thresh= 7.349E-04 alpha_mix =  0.700 |ddv_scf|^2 =  5.480E-04

      iter #   3 total cpu time :  3280.8 secs   av.it.:   7.6
      thresh= 2.341E-03 alpha_mix =  0.700 |ddv_scf|^2 =  3.256E-07

      iter #   4 total cpu time :  3315.6 secs   av.it.:   9.9
      thresh= 5.706E-05 alpha_mix =  0.700 |ddv_scf|^2 =  1.597E-08

      iter #   5 total cpu time :  3352.6 secs   av.it.:  10.0
      thresh= 1.264E-05 alpha_mix =  0.700 |ddv_scf|^2 =  7.593E-10

      iter #   6 total cpu time :  3386.3 secs   av.it.:  10.1
      thresh= 2.756E-06 alpha_mix =  0.700 |ddv_scf|^2 =  1.960E-11

      iter #   7 total cpu time :  3421.5 secs   av.it.:  10.1
      thresh= 4.427E-07 alpha_mix =  0.700 |ddv_scf|^2 =  2.643E-12

      iter #   8 total cpu time :  3457.1 secs   av.it.:   9.6
      thresh= 1.626E-07 alpha_mix =  0.700 |ddv_scf|^2 =  1.351E-11

      iter #   9 total cpu time :  3487.5 secs   av.it.:   8.1
      thresh= 3.676E-07 alpha_mix =  0.700 |ddv_scf|^2 =  7.170E-13

     End of self-consistent calculation

     Convergence has been achieved 


     Representation #  5 mode #   5

     Self-consistent Calculation

      iter #   1 total cpu time :  3519.7 secs   av.it.:   5.3
      thresh= 1.000E-02 alpha_mix =  0.700 |ddv_scf|^2 =  1.396E-06

      iter #   2 total cpu time :  3553.6 secs   av.it.:   9.9
      thresh= 1.182E-04 alpha_mix =  0.700 |ddv_scf|^2 =  1.690E-07

      iter #   3 total cpu time :  3587.5 secs   av.it.:   9.8
      thresh= 4.111E-05 alpha_mix =  0.700 |ddv_scf|^2 =  9.522E-09

      iter #   4 total cpu time :  3624.6 secs   av.it.:   9.8
      thresh= 9.758E-06 alpha_mix =  0.700 |ddv_scf|^2 =  1.558E-11

      iter #   5 total cpu time :  3659.6 secs   av.it.:   9.9
      thresh= 3.947E-07 alpha_mix =  0.700 |ddv_scf|^2 =  2.703E-13

     End of self-consistent calculation

     Convergence has been achieved 


     Representation #  6 mode #   6

     Self-consistent Calculation

      iter #   1 total cpu time :  3688.3 secs   av.it.:   5.3
      thresh= 1.000E-02 alpha_mix =  0.700 |ddv_scf|^2 =  1.392E-06

      iter #   2 total cpu time :  3722.3 secs   av.it.:   9.9
      thresh= 1.180E-04 alpha_mix =  0.700 |ddv_scf|^2 =  1.685E-07

      iter #   3 total cpu time :  3757.5 secs   av.it.:   9.8
      thresh= 4.104E-05 alpha_mix =  0.700 |ddv_scf|^2 =  9.451E-09

      iter #   4 total cpu time :  3793.9 secs   av.it.:   9.8
      thresh= 9.722E-06 alpha_mix =  0.700 |ddv_scf|^2 =  1.572E-11

      iter #   5 total cpu time :  3829.1 secs   av.it.:   9.9
      thresh= 3.965E-07 alpha_mix =  0.700 |ddv_scf|^2 =  2.724E-13

     End of self-consistent calculation

     Convergence has been achieved 
 
     Number of q in the star =   12
     List of q in the star:
          1  -0.166666667   0.500000000  -0.166666667
          2   0.166666667   0.500000000   0.166666667
          3  -0.500000000   0.166666667  -0.166666667
          4   0.166666667  -0.500000000  -0.166666667
          5  -0.166666667  -0.500000000   0.166666667
          6  -0.166666667  -0.166666667   0.500000000
          7  -0.166666667   0.166666667  -0.500000000
          8   0.166666667   0.166666667   0.500000000
          9   0.166666667  -0.166666667  -0.500000000
         10   0.500000000  -0.166666667  -0.166666667
         11  -0.500000000  -0.166666667   0.166666667
         12   0.500000000   0.166666667   0.166666667
     In addition there is the -q list: 
          1   0.166666667  -0.500000000   0.166666667
          2  -0.166666667  -0.500000000  -0.166666667
          3   0.500000000  -0.166666667   0.166666667
          4  -0.166666667   0.500000000   0.166666667
          5   0.166666667   0.500000000  -0.166666667
          6   0.166666667   0.166666667  -0.500000000
          7   0.166666667  -0.166666667   0.500000000
          8  -0.166666667  -0.166666667  -0.500000000
          9  -0.166666667   0.166666667   0.500000000
         10  -0.500000000   0.166666667   0.166666667
         11   0.500000000   0.166666667  -0.166666667
         12  -0.500000000  -0.166666667  -0.166666667

     Diagonalizing the dynamical matrix

     q = (   -0.166666667   0.500000000  -0.166666667 ) 

 **************************************************************************
     freq (    1) =       3.314340 [THz] =     110.554474 [cm-1]
     freq (    2) =       4.233977 [THz] =     141.230282 [cm-1]
     freq (    3) =       7.350846 [THz] =     245.197818 [cm-1]
     freq (    4) =      13.762164 [THz] =     459.056388 [cm-1]
     freq (    5) =      14.224415 [THz] =     474.475404 [cm-1]
     freq (    6) =      14.540561 [THz] =     485.020893 [cm-1]
 **************************************************************************

     Mode symmetry, C_s (m)     point group:

     freq (  1 -  1) =        110.6  [cm-1]   --> A''                
     freq (  2 -  2) =        141.2  [cm-1]   --> A'                 
     freq (  3 -  3) =        245.2  [cm-1]   --> A'                 
     freq (  4 -  4) =        459.1  [cm-1]   --> A'                 
     freq (  5 -  5) =        474.5  [cm-1]   --> A''                
     freq (  6 -  6) =        485.0  [cm-1]   --> A'                 

     Calculation of q =    0.6666667  -0.3333333   0.6666667
 
     Parallelization info
     --------------------
     sticks:   dense  smooth     PW     G-vecs:    dense   smooth      PW
     Min         108     108     42                 1489     1489     367
     Max         109     109     43                 1492     1492     368
     Sum         433     433    169                 5961     5961    1471
 


     bravais-lattice index     =            2
     lattice parameter (alat)  =      10.2600  a.u.
     unit-cell volume          =     270.0114 (a.u.)^3
     number of atoms/cell      =            2
     number of atomic types    =            1
     number of electrons       =         8.00
     number of Kohn-Sham states=            4
     kinetic-energy cutoff     =      30.0000  Ry
     charge density cutoff     =     120.0000  Ry
     Exchange-correlation      =  SLA  PW   PBX  PBC ( 1  4  3  4 0 0)

     celldm(1)=  10.260000  celldm(2)=   0.000000  celldm(3)=   0.000000
[...]
     charge density cutoff     =     120.0000  Ry
     Exchange-correlation      =  SLA  PW   PBX  PBC ( 1  4  3  4 0 0)

     celldm(1)=  10.260000  celldm(2)=   0.000000  celldm(3)=   0.000000
     celldm(4)=   0.000000  celldm(5)=   0.000000  celldm(6)=   0.000000

     crystal axes: (cart. coord. in units of alat)
               a(1) = (  -0.500000   0.000000   0.500000 )  
               a(2) = (   0.000000   0.500000   0.500000 )  
               a(3) = (  -0.500000   0.500000   0.000000 )  

     reciprocal axes: (cart. coord. in units 2 pi/alat)
               b(1) = ( -1.000000 -1.000000  1.000000 )  
               b(2) = (  1.000000  1.000000  1.000000 )  
               b(3) = ( -1.000000  1.000000 -1.000000 )  


     PseudoPot. # 1 for Si read from file:
     /home/users/zhennighausen/pslibrary.1.0.0/folder/Si.pbe-n-kjpaw_psl.0.1.UPF
     MD5 check sum: b9d333a40e496bef61db012f150758bf
     Pseudo is Projector augmented-wave + core cor, Zval =  4.0
     Generated using "atomic" code by A. Dal Corso  v.5.0.2 svn rev. 9415
     Shape of augmentation charge: PSQ
     Using radial grid of 1141 points,  4 beta functions with: 
                l(1) =   0
                l(2) =   0
                l(3) =   1
                l(4) =   1
     Q(r) pseudized with 0 coefficients 


     atomic species   valence    mass     pseudopotential
        Si1            4.00    28.08550     Si( 1.00)

     24 Sym. Ops. (no inversion) found



   Cartesian axes

     site n.     atom                  positions (alat units)
         1           Si1 tau(   1) = (   0.0000000   0.0000000   0.0000000  )
         2           Si1 tau(   2) = (   0.2500000   0.2500000   0.2500000  )

     number of k points=  2048

     Number of k-points >= 100: set verbosity='high' to print them.

     Dense  grid:     5961 G-vectors     FFT dimensions: (  25,  25,  25)

     Largest allocated arrays     est. size (Mb)     dimensions
        Kohn-Sham Wavefunctions         0.01 Mb     (     195,    4)
        NL pseudopotentials             0.05 Mb     (     195,   16)
        Each V/rho on FFT grid          0.07 Mb     (    4375)
        Each G-vector array             0.01 Mb     (    1491)
        G-vector shells                 0.00 Mb     (     107)
     Largest temporary arrays     est. size (Mb)     dimensions
        Auxiliary wavefunctions         0.05 Mb     (     195,   16)
        Each subspace H/S matrix        0.00 Mb     (      16,   16)
        Each <psi_i|beta_j> matrix      0.00 Mb     (      16,    4)

     Check: negative/imaginary core charge=   -0.000004    0.000000

     The potential is recalculated from file :
     /home/users/zhennighausen/Computational_Klasse/Si-Grosser/_ph0/pwscf.save/charge-density.dat

     Starting wfc are    8 atomic wfcs
     Checking if some PAW data can be deallocated... 

     Band Structure Calculation
     Davidson diagonalization with overlap

     ethr =  1.25E-10,  avg # of iterations = 12.5

     total cpu time spent up to now is     1113.5 secs

     End of band structure calculation

     Number of k-points >= 100: set verbosity='high' to print the bands.

     highest occupied level (ev):     6.1942

     Writing output data file pwscf.save

                                                                                

     bravais-lattice index     =            2
     lattice parameter (alat)  =      10.2600  a.u.
     unit-cell volume          =     270.0114 (a.u.)^3
     number of atoms/cell      =            2
     number of atomic types    =            1
     kinetic-energy cut-off    =      30.0000  Ry
     charge density cut-off    =     120.0000  Ry
     convergence threshold     =      1.0E-12
     beta                      =       0.7000
     number of iterations used =            4
     Exchange-correlation      =  SLA  PW   PBX  PBC ( 1  4  3  4 0 0)


     celldm(1)=   10.26000  celldm(2)=    0.00000  celldm(3)=    0.00000
     celldm(4)=    0.00000  celldm(5)=    0.00000  celldm(6)=    0.00000

     crystal axes: (cart. coord. in units of alat)
               a(1) = ( -0.5000  0.0000  0.5000 )  
               a(2) = (  0.0000  0.5000  0.5000 )  
               a(3) = ( -0.5000  0.5000  0.0000 )  

     reciprocal axes: (cart. coord. in units 2 pi/alat)
               b(1) = ( -1.0000 -1.0000  1.0000 )  
               b(2) = (  1.0000  1.0000  1.0000 )  
               b(3) = ( -1.0000  1.0000 -1.0000 )  


     Atoms inside the unit cell: 

     Cartesian axes

     site n.  atom      mass           positions (alat units)
        1     Si1 28.0855   tau(    1) = (    0.00000    0.00000    0.00000  )
        2     Si1 28.0855   tau(    2) = (    0.25000    0.25000    0.25000  )

     Computing dynamical matrix for 
                    q = (  -0.3333333  -1.0000000   0.0000000 )
 
      2 Sym.Ops. (no q -> -q+G )


     G cutoff =  319.9751  (   1491 G-vectors)     FFT grid: ( 25, 25, 25)
     number of k points=  2048

     PseudoPot. # 1 for Si read from file:
     /home/users/zhennighausen/pslibrary.1.0.0/folder/Si.pbe-n-kjpaw_psl.0.1.UPF
     MD5 check sum: b9d333a40e496bef61db012f150758bf
     Pseudo is Projector augmented-wave + core cor, Zval =  4.0
     Generated using "atomic" code by A. Dal Corso  v.5.0.2 svn rev. 9415
     Shape of augmentation charge: PSQ
     Using radial grid of 1141 points,  4 beta functions with: 
                l(1) =   0
                l(2) =   0
                l(3) =   1
                l(4) =   1
     Q(r) pseudized with 0 coefficients 


     Mode symmetry, C_2  (2)    point group:


     Atomic displacements:
     There are   6 irreducible representations

     Representation     1      1 modes -A  To be done

     Representation     2      1 modes -A  To be done

     Representation     3      1 modes -A  To be done

     Representation     4      1 modes -B  To be done

     Representation     5      1 modes -B  To be done

     Representation     6      1 modes -B  To be done



     Alpha used in Ewald sum =   1.3000
     PHONON       :     4h20m CPU        5h15m WALL



     Representation #  1 mode #   1

     Self-consistent Calculation

      iter #   1 total cpu time : 18970.1 secs   av.it.:   6.0
      thresh= 1.000E-02 alpha_mix =  0.700 |ddv_scf|^2 =  1.989E-05

      iter #   2 total cpu time : 19003.1 secs   av.it.:  10.5
      thresh= 4.460E-04 alpha_mix =  0.700 |ddv_scf|^2 =  2.760E-05

      iter #   3 total cpu time : 19034.9 secs   av.it.:   9.7
      thresh= 5.254E-04 alpha_mix =  0.700 |ddv_scf|^2 =  2.462E-08

      iter #   4 total cpu time : 19066.7 secs   av.it.:  10.1
      thresh= 1.569E-05 alpha_mix =  0.700 |ddv_scf|^2 =  1.956E-09

      iter #   5 total cpu time : 19099.9 secs   av.it.:  10.1
      thresh= 4.423E-06 alpha_mix =  0.700 |ddv_scf|^2 =  7.098E-11

      iter #   6 total cpu time : 19131.3 secs   av.it.:  10.0
      thresh= 8.425E-07 alpha_mix =  0.700 |ddv_scf|^2 =  1.015E-12

      iter #   7 total cpu time : 19163.8 secs   av.it.:  10.2
      thresh= 1.007E-07 alpha_mix =  0.700 |ddv_scf|^2 =  7.894E-14

     End of self-consistent calculation

     Convergence has been achieved 


     Representation #  2 mode #   2

     Self-consistent Calculation

      iter #   1 total cpu time : 19190.1 secs   av.it.:   5.8
      thresh= 1.000E-02 alpha_mix =  0.700 |ddv_scf|^2 =  6.780E-06

      iter #   2 total cpu time : 19225.8 secs   av.it.:  10.4
      thresh= 2.604E-04 alpha_mix =  0.700 |ddv_scf|^2 =  3.543E-06

      iter #   3 total cpu time : 19257.0 secs   av.it.:   9.9
      thresh= 1.882E-04 alpha_mix =  0.700 |ddv_scf|^2 =  4.827E-08

      iter #   4 total cpu time : 19290.6 secs   av.it.:  10.2
      thresh= 2.197E-05 alpha_mix =  0.700 |ddv_scf|^2 =  2.704E-08

      iter #   5 total cpu time : 19325.0 secs   av.it.:   9.9
      thresh= 1.644E-05 alpha_mix =  0.700 |ddv_scf|^2 =  2.194E-11

      iter #   6 total cpu time : 19359.8 secs   av.it.:  10.1
      thresh= 4.684E-07 alpha_mix =  0.700 |ddv_scf|^2 =  9.214E-13

     End of self-consistent calculation

     Convergence has been achieved 


     Representation #  3 mode #   3

     Self-consistent Calculation

      iter #   1 total cpu time : 19387.8 secs   av.it.:   5.6
      thresh= 1.000E-02 alpha_mix =  0.700 |ddv_scf|^2 =  5.158E-06

      iter #   2 total cpu time : 19420.7 secs   av.it.:  10.4
      thresh= 2.271E-04 alpha_mix =  0.700 |ddv_scf|^2 =  2.984E-06

      iter #   3 total cpu time : 19452.7 secs   av.it.:   9.9
      thresh= 1.727E-04 alpha_mix =  0.700 |ddv_scf|^2 =  5.562E-08

      iter #   4 total cpu time : 19486.3 secs   av.it.:  10.2
      thresh= 2.358E-05 alpha_mix =  0.700 |ddv_scf|^2 =  2.606E-08

      iter #   5 total cpu time : 19520.2 secs   av.it.:   9.9
      thresh= 1.614E-05 alpha_mix =  0.700 |ddv_scf|^2 =  3.085E-11

      iter #   6 total cpu time : 19554.8 secs   av.it.:  10.2
      thresh= 5.554E-07 alpha_mix =  0.700 |ddv_scf|^2 =  1.016E-12

      iter #   7 total cpu time : 19590.2 secs   av.it.:  10.1
      thresh= 1.008E-07 alpha_mix =  0.700 |ddv_scf|^2 =  6.820E-14

     End of self-consistent calculation

     Convergence has been achieved 


     Representation #  4 mode #   4

     Self-consistent Calculation

      iter #   1 total cpu time : 19618.4 secs   av.it.:   5.9
      thresh= 1.000E-02 alpha_mix =  0.700 |ddv_scf|^2 =  9.930E-06

      iter #   2 total cpu time : 19652.1 secs   av.it.:  10.5
      thresh= 3.151E-04 alpha_mix =  0.700 |ddv_scf|^2 =  8.688E-06

      iter #   3 total cpu time : 19686.5 secs   av.it.:   9.9
      thresh= 2.948E-04 alpha_mix =  0.700 |ddv_scf|^2 =  1.573E-07

      iter #   4 total cpu time : 19719.4 secs   av.it.:  10.0
      thresh= 3.967E-05 alpha_mix =  0.700 |ddv_scf|^2 =  1.570E-08

      iter #   5 total cpu time : 19753.0 secs   av.it.:  10.0
      thresh= 1.253E-05 alpha_mix =  0.700 |ddv_scf|^2 =  1.715E-11

      iter #   6 total cpu time : 19788.4 secs   av.it.:  10.1
      thresh= 4.141E-07 alpha_mix =  0.700 |ddv_scf|^2 =  7.367E-13

     End of self-consistent calculation

     Convergence has been achieved 


     Representation #  5 mode #   5

     Self-consistent Calculation

      iter #   1 total cpu time : 19817.6 secs   av.it.:   5.6
      thresh= 1.000E-02 alpha_mix =  0.700 |ddv_scf|^2 =  5.154E-06

      iter #   2 total cpu time : 19850.7 secs   av.it.:  10.4
      thresh= 2.270E-04 alpha_mix =  0.700 |ddv_scf|^2 =  2.982E-06

      iter #   3 total cpu time : 19883.6 secs   av.it.:   9.9
      thresh= 1.727E-04 alpha_mix =  0.700 |ddv_scf|^2 =  5.546E-08

      iter #   4 total cpu time : 19917.5 secs   av.it.:  10.2
      thresh= 2.355E-05 alpha_mix =  0.700 |ddv_scf|^2 =  2.587E-08

      iter #   5 total cpu time : 19950.9 secs   av.it.:   9.9
      thresh= 1.608E-05 alpha_mix =  0.700 |ddv_scf|^2 =  3.093E-11

      iter #   6 total cpu time : 19984.5 secs   av.it.:  10.2
      thresh= 5.561E-07 alpha_mix =  0.700 |ddv_scf|^2 =  1.027E-12

      iter #   7 total cpu time : 20017.6 secs   av.it.:  10.1
      thresh= 1.013E-07 alpha_mix =  0.700 |ddv_scf|^2 =  6.900E-14

     End of self-consistent calculation

     Convergence has been achieved 


     Representation #  6 mode #   6

     Self-consistent Calculation

      iter #   1 total cpu time : 20048.9 secs   av.it.:   6.0
      thresh= 1.000E-02 alpha_mix =  0.700 |ddv_scf|^2 =  1.674E-05

      iter #   2 total cpu time : 20082.2 secs   av.it.:  10.5
      thresh= 4.091E-04 alpha_mix =  0.700 |ddv_scf|^2 =  2.243E-05

      iter #   3 total cpu time : 20115.6 secs   av.it.:   9.8
      thresh= 4.736E-04 alpha_mix =  0.700 |ddv_scf|^2 =  4.863E-08

      iter #   4 total cpu time : 20149.4 secs   av.it.:  10.2
      thresh= 2.205E-05 alpha_mix =  0.700 |ddv_scf|^2 =  1.302E-08

      iter #   5 total cpu time : 20182.4 secs   av.it.:  10.0
      thresh= 1.141E-05 alpha_mix =  0.700 |ddv_scf|^2 =  2.530E-11

      iter #   6 total cpu time : 20216.0 secs   av.it.:  10.1
      thresh= 5.030E-07 alpha_mix =  0.700 |ddv_scf|^2 =  1.015E-12

      iter #   7 total cpu time : 20249.4 secs   av.it.:  10.1
      thresh= 1.008E-07 alpha_mix =  0.700 |ddv_scf|^2 =  7.922E-14

     End of self-consistent calculation

     Convergence has been achieved 
 
     Number of q in the star =   12
     List of q in the star:
          1  -0.333333333  -1.000000000   0.000000000
          2   0.333333333  -1.000000000   0.000000000
          3   0.000000000  -1.000000000   0.333333333
          4   0.000000000   1.000000000  -0.333333333
          5   0.000000000  -0.333333333  -1.000000000
          6   0.000000000   0.333333333   1.000000000
          7  -0.333333333   0.000000000   1.000000000
          8  -1.000000000  -0.333333333   0.000000000
          9  -1.000000000   0.333333333   0.000000000
         10  -1.000000000   0.000000000  -0.333333333
         11  -1.000000000   0.000000000   0.333333333
         12   0.333333333   0.000000000  -1.000000000

     Diagonalizing the dynamical matrix

     q = (   -0.333333333  -1.000000000   0.000000000 ) 

 **************************************************************************
     freq (    1) =       5.314811 [THz] =     177.283019 [cm-1]
     freq (    2) =       5.330233 [THz] =     177.797444 [cm-1]
     freq (    3) =      10.823858 [THz] =     361.045038 [cm-1]
     freq (    4) =      10.915250 [THz] =     364.093556 [cm-1]
     freq (    5) =      13.881166 [THz] =     463.025873 [cm-1]
     freq (    6) =      13.891155 [THz] =     463.359054 [cm-1]
 **************************************************************************

     Mode symmetry, C_2  (2)    point group:

     freq (  1 -  1) =        177.3  [cm-1]   --> A                  
     freq (  2 -  2) =        177.8  [cm-1]   --> B                  
     freq (  3 -  3) =        361.0  [cm-1]   --> B                  
     freq (  4 -  4) =        364.1  [cm-1]   --> A                  
     freq (  5 -  5) =        463.0  [cm-1]   --> B                  
     freq (  6 -  6) =        463.4  [cm-1]   --> A                  
 
     init_run     :      3.56s CPU      5.60s WALL (      15 calls)
     electrons    :    891.42s CPU   1019.09s WALL (      15 calls)

     Called by init_run:
     wfcinit      :      0.00s CPU      0.04s WALL (      15 calls)
     potinit      :      0.85s CPU      1.00s WALL (      15 calls)

     Called by electrons:
     c_bands      :    891.42s CPU   1019.09s WALL (      15 calls)
     v_of_rho     :      0.09s CPU      0.09s WALL (      16 calls)
     newd         :      0.04s CPU      0.05s WALL (      16 calls)

     Called by c_bands:
     init_us_2    :     60.57s CPU     63.61s WALL (  760940 calls)
     cegterg      :    763.23s CPU    793.01s WALL (   27928 calls)

     Called by *egterg:
     h_psi        :    740.42s CPU    770.93s WALL (  405061 calls)
     s_psi        :    501.75s CPU    523.76s WALL (13509243 calls)
     g_psi        :      8.96s CPU      9.12s WALL (  349205 calls)
     cdiaghg      :     45.48s CPU     46.89s WALL (  377133 calls)

     Called by h_psi:
     add_vuspsi   :    257.90s CPU    268.41s WALL ( 6652762 calls)

     General routines
     calbec       :    644.52s CPU    723.49s WALL (14752119 calls)
     fft          :      3.50s CPU      4.00s WALL (   11303 calls)
     ffts         :     26.65s CPU     30.17s WALL (   85104 calls)
     fftw         :  13010.23s CPU  14267.88s WALL (59864936 calls)
     davcio       :     44.19s CPU   1379.65s WALL ( 3139941 calls)
 
     Parallel routines
     fft_scatter  :   2348.63s CPU   3140.29s WALL (59961343 calls)

     PAW routines
     PAW_pot      :      0.76s CPU      0.81s WALL (      16 calls)
 
     PHONON       :     4h38m CPU        5h37m WALL

     INITIALIZATION: 
     phq_setup    :      0.28s CPU      2.44s WALL (      16 calls)
     phq_init     :    129.73s CPU    153.46s WALL (      16 calls)
 
     phq_init     :    129.73s CPU    153.46s WALL (      16 calls)
     set_drhoc    :      2.50s CPU      2.51s WALL (      48 calls)
     init_vloc    :      0.02s CPU      0.03s WALL (      16 calls)
     init_us_1    :      1.64s CPU      1.67s WALL (      16 calls)
     newd         :      0.04s CPU      0.05s WALL (      16 calls)
     dvanqq       :      0.41s CPU      0.43s WALL (      16 calls)
     drho         :    113.60s CPU    133.01s WALL (      16 calls)
 
     DYNAMICAL MATRIX:
     dynmat0      :     10.14s CPU     12.42s WALL (      16 calls)
     phqscf       :  15602.32s CPU  18896.49s WALL (      16 calls)
     dynmatrix    :      0.04s CPU      7.21s WALL (      16 calls)
 
     phqscf       :  15602.32s CPU  18896.49s WALL (      16 calls)
     solve_linter :  15574.46s CPU  18807.73s WALL (      84 calls)
     drhodv       :     26.56s CPU     31.50s WALL (      84 calls)
 
     dynmat0      :     10.14s CPU     12.42s WALL (      16 calls)
     dynmat_us    :      8.20s CPU      8.72s WALL (      16 calls)
     d2ionq       :      0.00s CPU      0.01s WALL (      16 calls)
     dynmatcc     :      1.91s CPU      1.92s WALL (      16 calls)
 
     dynmat_us    :      8.20s CPU      8.72s WALL (      16 calls)
     addusdynmat  :      0.00s CPU      0.00s WALL (      16 calls)
 
     phqscf       :  15602.32s CPU  18896.49s WALL (      16 calls)
     solve_linter :  15574.46s CPU  18807.73s WALL (      84 calls)
 
     solve_linter :  15574.46s CPU  18807.73s WALL (      84 calls)
     dvqpsi_us    :    202.63s CPU    214.24s WALL (   84504 calls)
     ortho        :     87.66s CPU    156.46s WALL (  608600 calls)
     cgsolve      :  12750.62s CPU  13384.37s WALL (  608600 calls)
     incdrhoscf   :   1282.16s CPU   1974.36s WALL (  608600 calls)
     addusddens   :      2.80s CPU      5.66s WALL (     665 calls)
     vpsifft      :    968.57s CPU   1035.19s WALL (  523376 calls)
     dv_of_drho   :      3.12s CPU      3.52s WALL (     659 calls)
     mix_pot      :      1.30s CPU    166.45s WALL (     586 calls)
     psymdvscf    :      3.50s CPU      3.74s WALL (     482 calls)
     newdq        :      2.48s CPU      2.57s WALL (     586 calls)
     adddvscf     :     20.51s CPU     21.69s WALL (  524096 calls)
     drhodvus     :      0.02s CPU      0.05s WALL (      84 calls)
 
     dvqpsi_us    :    202.63s CPU    214.24s WALL (   84504 calls)
     dvqpsi_us_on :     17.30s CPU     18.24s WALL (   84504 calls)
 
     cgsolve      :  12750.62s CPU  13384.37s WALL (  608600 calls)
     ch_psi       :  12519.96s CPU  13138.28s WALL ( 6247701 calls)
 
     ch_psi       :  12519.96s CPU  13138.28s WALL ( 6247701 calls)
     h_psiq       :  11695.60s CPU  12275.57s WALL ( 6247701 calls)
     last         :    762.97s CPU    800.56s WALL ( 6247701 calls)
 
     h_psiq       :  11695.60s CPU  12275.57s WALL ( 6247701 calls)
     firstfft     :   5285.53s CPU   5527.00s WALL (23320637 calls)
     secondfft    :   5165.44s CPU   5409.23s WALL (23320637 calls)
     add_vuspsi   :    257.90s CPU    268.41s WALL ( 6652762 calls)
 
     incdrhoscf   :   1282.16s CPU   1974.36s WALL (  608600 calls)
     addusdbec    :     35.00s CPU     36.82s WALL (  692744 calls)
 
     drhodvus     :      0.02s CPU      0.05s WALL (      84 calls)
 
      General routines
     calbec       :    644.52s CPU    723.49s WALL (14752119 calls)
     fft          :      3.50s CPU      4.00s WALL (   11303 calls)
     ffts         :     26.65s CPU     30.17s WALL (   85104 calls)
     fftw         :  13010.23s CPU  14267.88s WALL (59864936 calls)
     davcio       :     44.19s CPU   1379.65s WALL ( 3139941 calls)
     write_rec    :      1.51s CPU    373.56s WALL (     670 calls)
 
 
     PHONON       :     4h38m CPU        5h37m WALL

 
   This run was terminated on:  20:15:25  19Nov2015            

=------------------------------------------------------------------------------=
   JOB DONE.
=------------------------------------------------------------------------------=
